
Running Job 1 of 1 Cyanidin_Q1_tddft_full.in
qchem Cyanidin_Q1_tddft_full.in_2278999.0 /data/brussel/103/vsc10365/activedata/TDDFTAnthocyanidines/qchem2278999/ 1
/apps/brussel/RL8/skylake/software/Q-Chem/6.2.0/exe/qcprog.exe_s Cyanidin_Q1_tddft_full.in_2278999.0 /data/brussel/103/vsc10365/activedata/TDDFTAnthocyanidines/qchem2278999/
                  Welcome to Q-Chem
     A Quantum Leap Into The Future Of Chemistry


 Q-Chem 6.2, Q-Chem, Inc., Pleasanton, CA (2024)

 License issued to: SRG Prof. Dr. Frank De Proft, Vrije Universiteit Brussel

 E. Epifanovsky,  A. T. B. Gilbert,  Xintian Feng,  Joonho Lee,  Yuezhi Mao,  
 N. Mardirossian,  P. Pokhilko,  A. White,  M. Wormit,  M. P. Coons,  
 A. L. Dempwolff,  Zhengting Gan,  D. Hait,  P. R. Horn,  L. D. Jacobson,  
 I. Kaliman,  J. Kussmann,  A. W. Lange,  Ka Un Lao,  D. S. Levine,  Jie Liu,  
 S. C. McKenzie,  A. F. Morrison,  K. D. Nanda,  F. Plasser,  D. R. Rehn,  
 M. L. Vidal,  Zhi-Qiang You,  Ying Zhu,  Huseyin Aksu,  B. Alam,  
 B. Albrecht,  A. Aldossary,  E. Alguire,  J. H. Andersen,  
 J. E. Arias-Martinez,  V. Athavale,  D. Barton,  K. Begam,  A. Behn,  
 N. Bellonzi,  Y. A. Bernard,  E. J. Berquist,  H. Burton,  A. Carreras,  
 K. Carter-Fenk,  Mathew Chow,  Romit Chakraborty,  Chandrima Chakravarty,  
 Junhan Chen,  A. D. Chien,  K. D. Closser,  V. Cofer-Shabica,  L. Cunha,  
 S. Dasgupta,  Jia Deng,  Joseph Dickinson,  M. de Wergifosse,  
 M. Diedenhofen,  Hainam Do,  Wenjie Dou,  S. Ehlert,  Po-Tung Fang,  
 S. Fatehi,  Qingguo Feng,  Jonathan Fetherolf,  T. Friedhoff,  
 Thomas Froitzheim,  Sarai Folkestad,  B. Ganoe,  J. Gayvert,  Qinghui Ge,  
 G. Gidofalvi,  M. Gimferrer,  M. Goldey,  Montgomery Gray,  J. Gomes,  
 C. Gonzalez-Espinoza,  S. Gulania,  A. Gunina,  J. A. Gyamfi,  
 M. W. D. Hanson-Heine,  P. H. P. Harbach,  A. W. Hauser,  M. F. Herbst,  
 M. Hernandez Vera,  M. Hodecker,  Z. C. Holden,  S. Houck,  Xunkun Huang,  
 Kerwin Hui,  B. C. Huynh,  K. Ikeda,  M. Ivanov,  Nayanthara K. Jayadev,  
 Hyunjun Ji,  Zuxin Jin,  Hanjie Jiang,  Subrata Jana,  B. Kaduk,  
 S. Kaehler,  R. Kang,  K. Khistyaev,  Jaehoon Kim,  Yongbin Kim,  
 P. Klunzinger,  Z. Koczor-Benda,  Joong Hoon Koh,  D. Kosenkov,  
 Saikiran Kotaru,  L. Koulias,  T. Kowalczyk,  C. M. Krauter,  K. Kue,  
 A. Kunitsa,  T. Kus,  A. Landau,  K. V. Lawler,  D. Lefrancois,  S. Lehtola,  
 Rain Li,  Shaozhi Li,  Tao E. Li,  Yi-Pei Li,  Jiashu Liang,  M. Liebenthal,  
 Hung-Hsuan Lin,  You-Sheng Lin,  Fenglai Liu,  Kuan-Yu Liu,  Xiao Liu,  
 M. Loipersberger,  A. Luenser,  C. Malbon,  Aniket Mandal,  Manisha,  
 A. Manjanath,  P. Manohar,  E. Mansoor,  S. F. Manzer,  Shan-Ping Mao,  
 A. V. Marenich,  T. Markovich,  S. Mason,  F. Matz,  S. A. Maurer,  
 Samuel May,  Alexandra McIsaac,  P. F. McLaughlin,  M. F. S. J. Menger,  
 J.-M. Mewes,  S. A. Mewes,  P. Morgante,  Mohammad Mostafanejad,  
 Madhubani Mukherjee,  J. W. Mullinax,  Quyen Nguyen,  Avik Kumar Ojha,  
 K. J. Oosterbaan,  Eno Paenurk,  Xiaoliang Pan,  G. Paran,  V. Parravicini,  
 Alexander C. Paul,  Suranjan K. Paul,  F. Pavosevic,  Zheng Pei,  S. Prager,  
 E. I. Proynov,  E. Ramos,  B. Rana,  A. E. Rask,  A. Rettig,  R. M. Richard,  
 F. Rob,  E. Rossomme,  T. Scheele,  M. Scheurer,  M. Schneider,  
 P. E. Schneider,  Tim K. Schramm,  N. Sergueev,  S. M. Sharada,  
 Hengyuan Shen,  W. Skomorowski,  D. W. Small,  C. J. Stein,  
 Alistair J. Sterling,  Yingli Su,  Yu-Chuan Su,  E. J. Sundstrom,  
 J. Talbot,  Zhen Tao,  J. Thirman,  Hung-Yi Tsai,  T. Tsuchimochi,  
 N. M. Tubman,  C. Utku,  S. P. Veccham,  O. Vydrov,  Rahel Weiss,  
 J. Wenzel,  Jonathan Wong,  J. Witte,  H. Wu,  Yanze Wu,  A. Yamada,  
 Chou-Hsun Yang,  Kun Yao,  S. Yeganeh,  S. R. Yost,  Qi Yu,  A. Zech,  
 F. Zeller,  Chongxiao Zhao,  Igor Ying Zhang,  Xing Zhang,  Yu Zhang,  
 D. Zuev,  A. Aspuru-Guzik,  A. T. Bell,  N. A. Besley,  K. B. Bravaya,  
 B. R. Brooks,  D. Casanova,  Jeng-Da Chai,  Hsing-Ta Chen,  S. Coriani,  
 C. J. Cramer,  A. E. DePrince, III,  R. A. DiStasio Jr.,  A. Dreuw,  
 B. D. Dunietz,  T. R. Furlani,  W. A. Goddard III,  S. Grimme,  
 S. Hammes-Schiffer,  T. Head-Gordon,  W. J. Hehre,  Chao-Ping Hsu,  
 T.-C. Jagau,  Yousung Jung,  A. Klamt,  Jing Kong,  D. S. Lambrecht,  
 Xiangyuan Li,  WanZhen Liang,  N. J. Mayhall,  C. W. McCurdy,  J. B. Neaton,  
 T. Neudecker,  C. Ochsenfeld,  J. A. Parkhill,  R. Peverati,  
 V. A. Rassolov,  Haisheng Ren,  Yihan Shao,  L. V. Slipchenko,  
 R. P. Steele,  J. E. Subotnik,  A. J. W. Thom,  A. Tkatchenko,  
 D. G. Truhlar,  T. Van Voorhis,  Fan Wang,  T. A. Wesolowski,  K. B. Whaley,  
 H. L. Woodcock III,  P. M. Zimmerman,  S. Faraji,  P. M. W. Gill,  
 M. Head-Gordon,  J. M. Herbert,  A. I. Krylov

 Contributors to earlier versions of Q-Chem not listed above: 
 R. D. Adamson,  B. Austin,  R. Baer,  J. Baker,  G. J. O. Beran,  
 K. Brandhorst,  S. T. Brown,  E. F. C. Byrd,  Arup K. Chakraborty,  
 G. K. L. Chan,  Chun-Min Chang,  Yunqing Chen,  C.-L. Cheng,  
 Siu Hung Chien,  D. M. Chipman,  D. L. Crittenden,  H. Dachsel,  
 R. J. Doerksen,  A. D. Dutoi,  R. G. Edgar,  J. Fosso-Tande,  
 L. Fusti-Molnar,  D. Ghosh,  A. Ghysels,  A. Golubeva-Zadorozhnaya,  
 J. Gonthier,  M. S. Gordon,  S. R. Gwaltney,  G. Hawkins,  J. E. Herr,  
 A. Heyden,  S. Hirata,  E. G. Hohenstein,  G. Kedziora,  F. J. Keil,  
 C. Kelley,  Jihan Kim,  R. A. King,  R. Z. Khaliullin,  P. P. Korambath,  
 W. Kurlancheek,  A. Laurent,  A. M. Lee,  M. S. Lee,  S. V. Levchenko,  
 Ching Yeh Lin,  D. Liotard,  E. Livshits,  R. C. Lochan,  I. Lotan,  
 L. A. Martinez-Martinez,  P. E. Maslen,  N. Nair,  D. P. O'Neill,  
 D. Neuhauser,  E. Neuscamman,  C. M. Oana,  R. Olivares-Amaya,  R. Olson,  
 T. M. Perrine,  B. Peters,  P. A. Pieniazek,  A. Prociuk,  Y. M. Rhee,  
 J. Ritchie,  M. A. Rohrdanz,  E. Rosta,  N. J. Russ,  H. F. Schaefer III,  
 M. W. Schmidt,  N. E. Schultz,  S. Sharma,  N. Shenvi,  C. D. Sherrill,  
 A. C. Simmonett,  A. Sodt,  T. Stein,  D. Stuck,  K. S. Thanthiriwatte,  
 V. Vanovschi,  L. Vogt,  Tao Wang,  A. Warshel,  M. A. Watson,  
 C. F. Williams,  Q. Wu,  X. Xu,  Jun Yang,  W. Zhang,  Yan Zhao

   Please cite Q-Chem as follows:
  "Software for the frontiers of quantum chemistry:
   An overview of developments in the Q-Chem 5 package"
   J. Chem. Phys. 155, 084801 (2021)
   https://doi.org/10.1063/5.0055522 (open access)

 Q-Chem 6.2.0 for Intel X86 EM64T Linux

 Parts of Q-Chem use Armadillo 9.900.5 (Nocturnal Misbehaviour).
 http://arma.sourceforge.net/

 Q-Chem begins on Fri Jan 31 02:14:51 2025  

 Host: 
0

     Scratch files written to /data/brussel/103/vsc10365/activedata/TDDFTAnthocyanidines/qchem2278999//
 May224 |scratch|qcdevops|jenkins|workspace|build_RNUM -1
 Processing $rem in /apps/brussel/RL8/skylake/software/Q-Chem/6.2.0/config/preferences:
 Processing $rem in /user/brussel/103/vsc10365/.qchemrc:
 Symmetry turned off for PCM/SM12/SMD calculation

 Checking the input file for inconsistencies... 	...done.

--------------------------------------------------------------
User input:
--------------------------------------------------------------
$comment
TDDFT calculation of cyanidin Q1 structure
nprocs=16
mem=64gb
$end

$molecule
0 1
C    0.0194479   -1.7885901   -3.7017148
C    0.0433046   -0.6166214   -4.4699648
C    0.0542113    0.6134549   -3.8436343
C    0.0416311    0.7026609   -2.4322121
C    0.0165469   -0.5010989   -1.7148800
C    0.0051813   -1.7484788   -2.3136826
C    0.0522305    1.9087801   -1.6954050
C    0.0367056    1.9071363   -0.3287809
C    0.0086541    0.6727498    0.3904426
O    0.0019745   -0.4593951   -0.3554930
C   -0.0140055    0.4416214    1.7831578
C   -0.0451551   -0.9024812    2.2711360
C   -0.0669084   -1.1787165    3.6036351
C   -0.0619324   -0.1304163    4.6077659
C   -0.0303278    1.2048242    4.0928780
C   -0.0074180    1.4835565    2.7550401
O    0.0089682   -3.0174010   -4.2910584
H    0.0527585   -0.6776785   -5.5519462
O    0.0770766    1.7862179   -4.5333068
H   -0.0145435   -2.6532234   -1.7233682
H    0.0731740    2.8582984   -2.2151945
O    0.0464135    3.0654219    0.3887800
H   -0.0518209   -1.7281345    1.5724168
O   -0.0953516   -2.4603419    4.1002429
O   -0.0831707   -0.3969441    5.8454080
H   -0.0246319    2.0120949    4.8155852
H    0.0162093    2.5115063    2.4378627
H    0.0209405   -2.9268237   -5.2549062
H    0.0780497    1.6113417   -5.4854546
H    0.0669177    3.8214661   -0.2161751
H   -0.0924100   -3.0904559    3.3657365
$end

$rem
BASIS  =  def2-ma-TZVP
MEM_STATIC  =  2000
MEM_TOTAL  =  64000
METHOD  =  CAM-B3LYP
SOLVENT_METHOD = pcm
SYMMETRY_IGNORE  =  1
CIS_N_ROOTS = 7
CIS_SINGLETS = true
CIS_TRIPLETS = true
CISTR_PRINT = true
RPA = true
PRINT_ORBITALS = true
SCF_PRINT = 1
SCF_FINAL_PRINT = 2
PRINT_GENERAL_BASIS = true
CISTR_PRINT = true
PRINT_RADII_GYRE = true
MULTIPOLE_ORDER = 5
CIS_AMPL_PRINT = 5
CIS_AMPL_ANAL = true
STATE_ANALYSIS = true
$end

$pcm
Theory   CPCM
Method   SWIG
Solver   Inversion
Radii    Bondi
$end

$solvent
Dielectric         78.39
OpticalDielectric  1.777849
$end


--------------------------------------------------------------
 ----------------------------------------------------------------
             Standard Nuclear Orientation (Angstroms)
    I     Atom           X                Y                Z
 ----------------------------------------------------------------
    1      C       0.0194479000    -1.7885901000    -3.7017148000
    2      C       0.0433046000    -0.6166214000    -4.4699648000
    3      C       0.0542113000     0.6134549000    -3.8436343000
    4      C       0.0416311000     0.7026609000    -2.4322121000
    5      C       0.0165469000    -0.5010989000    -1.7148800000
    6      C       0.0051813000    -1.7484788000    -2.3136826000
    7      C       0.0522305000     1.9087801000    -1.6954050000
    8      C       0.0367056000     1.9071363000    -0.3287809000
    9      C       0.0086541000     0.6727498000     0.3904426000
   10      O       0.0019745000    -0.4593951000    -0.3554930000
   11      C      -0.0140055000     0.4416214000     1.7831578000
   12      C      -0.0451551000    -0.9024812000     2.2711360000
   13      C      -0.0669084000    -1.1787165000     3.6036351000
   14      C      -0.0619324000    -0.1304163000     4.6077659000
   15      C      -0.0303278000     1.2048242000     4.0928780000
   16      C      -0.0074180000     1.4835565000     2.7550401000
   17      O       0.0089682000    -3.0174010000    -4.2910584000
   18      H       0.0527585000    -0.6776785000    -5.5519462000
   19      O       0.0770766000     1.7862179000    -4.5333068000
   20      H      -0.0145435000    -2.6532234000    -1.7233682000
   21      H       0.0731740000     2.8582984000    -2.2151945000
   22      O       0.0464135000     3.0654219000     0.3887800000
   23      H      -0.0518209000    -1.7281345000     1.5724168000
   24      O      -0.0953516000    -2.4603419000     4.1002429000
   25      O      -0.0831707000    -0.3969441000     5.8454080000
   26      H      -0.0246319000     2.0120949000     4.8155852000
   27      H       0.0162093000     2.5115063000     2.4378627000
   28      H       0.0209405000    -2.9268237000    -5.2549062000
   29      H       0.0780497000     1.6113417000    -5.4854546000
   30      H       0.0669177000     3.8214661000    -0.2161751000
   31      H      -0.0924100000    -3.0904559000     3.3657365000
 ----------------------------------------------------------------
 Nuclear Repulsion Energy =        1564.26657636 hartrees
 There are       74 alpha and       74 beta electrons
 Requested basis set is def2-ma-TZVP
 Basis set in general basis input format:
-----------------------------------------------------------------------
$basis
C    0
S    6    1.000000
   1.35753497E+04    2.22458144E-04 
   2.03523337E+03    1.72327383E-03 
   4.63225624E+02    8.92557153E-03 
   1.31200196E+02    3.57279845E-02 
   4.28530159E+01    1.10762599E-01 
   1.55841858E+01    2.42956276E-01 
S    2    1.000000
   6.20671385E+00    4.14402634E-01 
   2.57648965E+00    2.37449687E-01 
S    1    1.000000
   5.76963394E-01    1.00000000E+00 
S    1    1.000000
   2.29728314E-01    1.00000000E+00 
S    1    1.000000
   9.51644400E-02    1.00000000E+00 
S    1    1.000000
   4.84754014E-02    1.00000000E+00 
P    4    1.000000
   3.46972322E+01    5.33336578E-03 
   7.95826228E+00    3.58641091E-02 
   2.37808269E+00    1.42158733E-01 
   8.14332082E-01    3.42704718E-01 
P    1    1.000000
   2.88875473E-01    4.64458224E-01 
P    1    1.000000
   1.00568237E-01    2.49557899E-01 
D    1    1.000000
   1.09700000E+00    1.00000000E+00 
D    1    1.000000
   3.18000000E-01    1.00000000E+00 
F    1    1.000000
   7.61000000E-01    1.00000000E+00 
****
C    0
S    6    1.000000
   1.35753497E+04    2.22458144E-04 
   2.03523337E+03    1.72327383E-03 
   4.63225624E+02    8.92557153E-03 
   1.31200196E+02    3.57279845E-02 
   4.28530159E+01    1.10762599E-01 
   1.55841858E+01    2.42956276E-01 
S    2    1.000000
   6.20671385E+00    4.14402634E-01 
   2.57648965E+00    2.37449687E-01 
S    1    1.000000
   5.76963394E-01    1.00000000E+00 
S    1    1.000000
   2.29728314E-01    1.00000000E+00 
S    1    1.000000
   9.51644400E-02    1.00000000E+00 
S    1    1.000000
   4.84754014E-02    1.00000000E+00 
P    4    1.000000
   3.46972322E+01    5.33336578E-03 
   7.95826228E+00    3.58641091E-02 
   2.37808269E+00    1.42158733E-01 
   8.14332082E-01    3.42704718E-01 
P    1    1.000000
   2.88875473E-01    4.64458224E-01 
P    1    1.000000
   1.00568237E-01    2.49557899E-01 
D    1    1.000000
   1.09700000E+00    1.00000000E+00 
D    1    1.000000
   3.18000000E-01    1.00000000E+00 
F    1    1.000000
   7.61000000E-01    1.00000000E+00 
****
C    0
S    6    1.000000
   1.35753497E+04    2.22458144E-04 
   2.03523337E+03    1.72327383E-03 
   4.63225624E+02    8.92557153E-03 
   1.31200196E+02    3.57279845E-02 
   4.28530159E+01    1.10762599E-01 
   1.55841858E+01    2.42956276E-01 
S    2    1.000000
   6.20671385E+00    4.14402634E-01 
   2.57648965E+00    2.37449687E-01 
S    1    1.000000
   5.76963394E-01    1.00000000E+00 
S    1    1.000000
   2.29728314E-01    1.00000000E+00 
S    1    1.000000
   9.51644400E-02    1.00000000E+00 
S    1    1.000000
   4.84754014E-02    1.00000000E+00 
P    4    1.000000
   3.46972322E+01    5.33336578E-03 
   7.95826228E+00    3.58641091E-02 
   2.37808269E+00    1.42158733E-01 
   8.14332082E-01    3.42704718E-01 
P    1    1.000000
   2.88875473E-01    4.64458224E-01 
P    1    1.000000
   1.00568237E-01    2.49557899E-01 
D    1    1.000000
   1.09700000E+00    1.00000000E+00 
D    1    1.000000
   3.18000000E-01    1.00000000E+00 
F    1    1.000000
   7.61000000E-01    1.00000000E+00 
****
C    0
S    6    1.000000
   1.35753497E+04    2.22458144E-04 
   2.03523337E+03    1.72327383E-03 
   4.63225624E+02    8.92557153E-03 
   1.31200196E+02    3.57279845E-02 
   4.28530159E+01    1.10762599E-01 
   1.55841858E+01    2.42956276E-01 
S    2    1.000000
   6.20671385E+00    4.14402634E-01 
   2.57648965E+00    2.37449687E-01 
S    1    1.000000
   5.76963394E-01    1.00000000E+00 
S    1    1.000000
   2.29728314E-01    1.00000000E+00 
S    1    1.000000
   9.51644400E-02    1.00000000E+00 
S    1    1.000000
   4.84754014E-02    1.00000000E+00 
P    4    1.000000
   3.46972322E+01    5.33336578E-03 
   7.95826228E+00    3.58641091E-02 
   2.37808269E+00    1.42158733E-01 
   8.14332082E-01    3.42704718E-01 
P    1    1.000000
   2.88875473E-01    4.64458224E-01 
P    1    1.000000
   1.00568237E-01    2.49557899E-01 
D    1    1.000000
   1.09700000E+00    1.00000000E+00 
D    1    1.000000
   3.18000000E-01    1.00000000E+00 
F    1    1.000000
   7.61000000E-01    1.00000000E+00 
****
C    0
S    6    1.000000
   1.35753497E+04    2.22458144E-04 
   2.03523337E+03    1.72327383E-03 
   4.63225624E+02    8.92557153E-03 
   1.31200196E+02    3.57279845E-02 
   4.28530159E+01    1.10762599E-01 
   1.55841858E+01    2.42956276E-01 
S    2    1.000000
   6.20671385E+00    4.14402634E-01 
   2.57648965E+00    2.37449687E-01 
S    1    1.000000
   5.76963394E-01    1.00000000E+00 
S    1    1.000000
   2.29728314E-01    1.00000000E+00 
S    1    1.000000
   9.51644400E-02    1.00000000E+00 
S    1    1.000000
   4.84754014E-02    1.00000000E+00 
P    4    1.000000
   3.46972322E+01    5.33336578E-03 
   7.95826228E+00    3.58641091E-02 
   2.37808269E+00    1.42158733E-01 
   8.14332082E-01    3.42704718E-01 
P    1    1.000000
   2.88875473E-01    4.64458224E-01 
P    1    1.000000
   1.00568237E-01    2.49557899E-01 
D    1    1.000000
   1.09700000E+00    1.00000000E+00 
D    1    1.000000
   3.18000000E-01    1.00000000E+00 
F    1    1.000000
   7.61000000E-01    1.00000000E+00 
****
C    0
S    6    1.000000
   1.35753497E+04    2.22458144E-04 
   2.03523337E+03    1.72327383E-03 
   4.63225624E+02    8.92557153E-03 
   1.31200196E+02    3.57279845E-02 
   4.28530159E+01    1.10762599E-01 
   1.55841858E+01    2.42956276E-01 
S    2    1.000000
   6.20671385E+00    4.14402634E-01 
   2.57648965E+00    2.37449687E-01 
S    1    1.000000
   5.76963394E-01    1.00000000E+00 
S    1    1.000000
   2.29728314E-01    1.00000000E+00 
S    1    1.000000
   9.51644400E-02    1.00000000E+00 
S    1    1.000000
   4.84754014E-02    1.00000000E+00 
P    4    1.000000
   3.46972322E+01    5.33336578E-03 
   7.95826228E+00    3.58641091E-02 
   2.37808269E+00    1.42158733E-01 
   8.14332082E-01    3.42704718E-01 
P    1    1.000000
   2.88875473E-01    4.64458224E-01 
P    1    1.000000
   1.00568237E-01    2.49557899E-01 
D    1    1.000000
   1.09700000E+00    1.00000000E+00 
D    1    1.000000
   3.18000000E-01    1.00000000E+00 
F    1    1.000000
   7.61000000E-01    1.00000000E+00 
****
C    0
S    6    1.000000
   1.35753497E+04    2.22458144E-04 
   2.03523337E+03    1.72327383E-03 
   4.63225624E+02    8.92557153E-03 
   1.31200196E+02    3.57279845E-02 
   4.28530159E+01    1.10762599E-01 
   1.55841858E+01    2.42956276E-01 
S    2    1.000000
   6.20671385E+00    4.14402634E-01 
   2.57648965E+00    2.37449687E-01 
S    1    1.000000
   5.76963394E-01    1.00000000E+00 
S    1    1.000000
   2.29728314E-01    1.00000000E+00 
S    1    1.000000
   9.51644400E-02    1.00000000E+00 
S    1    1.000000
   4.84754014E-02    1.00000000E+00 
P    4    1.000000
   3.46972322E+01    5.33336578E-03 
   7.95826228E+00    3.58641091E-02 
   2.37808269E+00    1.42158733E-01 
   8.14332082E-01    3.42704718E-01 
P    1    1.000000
   2.88875473E-01    4.64458224E-01 
P    1    1.000000
   1.00568237E-01    2.49557899E-01 
D    1    1.000000
   1.09700000E+00    1.00000000E+00 
D    1    1.000000
   3.18000000E-01    1.00000000E+00 
F    1    1.000000
   7.61000000E-01    1.00000000E+00 
****
C    0
S    6    1.000000
   1.35753497E+04    2.22458144E-04 
   2.03523337E+03    1.72327383E-03 
   4.63225624E+02    8.92557153E-03 
   1.31200196E+02    3.57279845E-02 
   4.28530159E+01    1.10762599E-01 
   1.55841858E+01    2.42956276E-01 
S    2    1.000000
   6.20671385E+00    4.14402634E-01 
   2.57648965E+00    2.37449687E-01 
S    1    1.000000
   5.76963394E-01    1.00000000E+00 
S    1    1.000000
   2.29728314E-01    1.00000000E+00 
S    1    1.000000
   9.51644400E-02    1.00000000E+00 
S    1    1.000000
   4.84754014E-02    1.00000000E+00 
P    4    1.000000
   3.46972322E+01    5.33336578E-03 
   7.95826228E+00    3.58641091E-02 
   2.37808269E+00    1.42158733E-01 
   8.14332082E-01    3.42704718E-01 
P    1    1.000000
   2.88875473E-01    4.64458224E-01 
P    1    1.000000
   1.00568237E-01    2.49557899E-01 
D    1    1.000000
   1.09700000E+00    1.00000000E+00 
D    1    1.000000
   3.18000000E-01    1.00000000E+00 
F    1    1.000000
   7.61000000E-01    1.00000000E+00 
****
C    0
S    6    1.000000
   1.35753497E+04    2.22458144E-04 
   2.03523337E+03    1.72327383E-03 
   4.63225624E+02    8.92557153E-03 
   1.31200196E+02    3.57279845E-02 
   4.28530159E+01    1.10762599E-01 
   1.55841858E+01    2.42956276E-01 
S    2    1.000000
   6.20671385E+00    4.14402634E-01 
   2.57648965E+00    2.37449687E-01 
S    1    1.000000
   5.76963394E-01    1.00000000E+00 
S    1    1.000000
   2.29728314E-01    1.00000000E+00 
S    1    1.000000
   9.51644400E-02    1.00000000E+00 
S    1    1.000000
   4.84754014E-02    1.00000000E+00 
P    4    1.000000
   3.46972322E+01    5.33336578E-03 
   7.95826228E+00    3.58641091E-02 
   2.37808269E+00    1.42158733E-01 
   8.14332082E-01    3.42704718E-01 
P    1    1.000000
   2.88875473E-01    4.64458224E-01 
P    1    1.000000
   1.00568237E-01    2.49557899E-01 
D    1    1.000000
   1.09700000E+00    1.00000000E+00 
D    1    1.000000
   3.18000000E-01    1.00000000E+00 
F    1    1.000000
   7.61000000E-01    1.00000000E+00 
****
O    0
S    6    1.000000
   2.70323826E+04    2.17263025E-04 
   4.05238714E+03    1.68386622E-03 
   9.22327227E+02    8.73956163E-03 
   2.61240710E+02    3.52399688E-02 
   8.53546414E+01    1.11535191E-01 
   3.10350352E+01    2.55889540E-01 
S    2    1.000000
   1.22608607E+01    3.97687309E-01 
   4.99870760E+00    2.46278494E-01 
S    1    1.000000
   1.17031082E+00    1.00000000E+00 
S    1    1.000000
   4.64747410E-01    1.00000000E+00 
S    1    1.000000
   1.85045364E-01    1.00000000E+00 
S    1    1.000000
   7.02880263E-02    1.00000000E+00 
P    4    1.000000
   6.32749548E+01    6.06851034E-03 
   1.46270494E+01    4.19125758E-02 
   4.45012235E+00    1.61538411E-01 
   1.52757996E+00    3.57069513E-01 
P    1    1.000000
   5.29351179E-01    4.47942075E-01 
P    1    1.000000
   1.74784213E-01    2.44460697E-01 
P    1    1.000000
   5.11127457E-02    1.00000000E+00 
D    1    1.000000
   2.31400000E+00    1.00000000E+00 
D    1    1.000000
   6.45000000E-01    1.00000000E+00 
F    1    1.000000
   1.42800000E+00    1.00000000E+00 
****
C    0
S    6    1.000000
   1.35753497E+04    2.22458144E-04 
   2.03523337E+03    1.72327383E-03 
   4.63225624E+02    8.92557153E-03 
   1.31200196E+02    3.57279845E-02 
   4.28530159E+01    1.10762599E-01 
   1.55841858E+01    2.42956276E-01 
S    2    1.000000
   6.20671385E+00    4.14402634E-01 
   2.57648965E+00    2.37449687E-01 
S    1    1.000000
   5.76963394E-01    1.00000000E+00 
S    1    1.000000
   2.29728314E-01    1.00000000E+00 
S    1    1.000000
   9.51644400E-02    1.00000000E+00 
S    1    1.000000
   4.84754014E-02    1.00000000E+00 
P    4    1.000000
   3.46972322E+01    5.33336578E-03 
   7.95826228E+00    3.58641091E-02 
   2.37808269E+00    1.42158733E-01 
   8.14332082E-01    3.42704718E-01 
P    1    1.000000
   2.88875473E-01    4.64458224E-01 
P    1    1.000000
   1.00568237E-01    2.49557899E-01 
D    1    1.000000
   1.09700000E+00    1.00000000E+00 
D    1    1.000000
   3.18000000E-01    1.00000000E+00 
F    1    1.000000
   7.61000000E-01    1.00000000E+00 
****
C    0
S    6    1.000000
   1.35753497E+04    2.22458144E-04 
   2.03523337E+03    1.72327383E-03 
   4.63225624E+02    8.92557153E-03 
   1.31200196E+02    3.57279845E-02 
   4.28530159E+01    1.10762599E-01 
   1.55841858E+01    2.42956276E-01 
S    2    1.000000
   6.20671385E+00    4.14402634E-01 
   2.57648965E+00    2.37449687E-01 
S    1    1.000000
   5.76963394E-01    1.00000000E+00 
S    1    1.000000
   2.29728314E-01    1.00000000E+00 
S    1    1.000000
   9.51644400E-02    1.00000000E+00 
S    1    1.000000
   4.84754014E-02    1.00000000E+00 
P    4    1.000000
   3.46972322E+01    5.33336578E-03 
   7.95826228E+00    3.58641091E-02 
   2.37808269E+00    1.42158733E-01 
   8.14332082E-01    3.42704718E-01 
P    1    1.000000
   2.88875473E-01    4.64458224E-01 
P    1    1.000000
   1.00568237E-01    2.49557899E-01 
D    1    1.000000
   1.09700000E+00    1.00000000E+00 
D    1    1.000000
   3.18000000E-01    1.00000000E+00 
F    1    1.000000
   7.61000000E-01    1.00000000E+00 
****
C    0
S    6    1.000000
   1.35753497E+04    2.22458144E-04 
   2.03523337E+03    1.72327383E-03 
   4.63225624E+02    8.92557153E-03 
   1.31200196E+02    3.57279845E-02 
   4.28530159E+01    1.10762599E-01 
   1.55841858E+01    2.42956276E-01 
S    2    1.000000
   6.20671385E+00    4.14402634E-01 
   2.57648965E+00    2.37449687E-01 
S    1    1.000000
   5.76963394E-01    1.00000000E+00 
S    1    1.000000
   2.29728314E-01    1.00000000E+00 
S    1    1.000000
   9.51644400E-02    1.00000000E+00 
S    1    1.000000
   4.84754014E-02    1.00000000E+00 
P    4    1.000000
   3.46972322E+01    5.33336578E-03 
   7.95826228E+00    3.58641091E-02 
   2.37808269E+00    1.42158733E-01 
   8.14332082E-01    3.42704718E-01 
P    1    1.000000
   2.88875473E-01    4.64458224E-01 
P    1    1.000000
   1.00568237E-01    2.49557899E-01 
D    1    1.000000
   1.09700000E+00    1.00000000E+00 
D    1    1.000000
   3.18000000E-01    1.00000000E+00 
F    1    1.000000
   7.61000000E-01    1.00000000E+00 
****
C    0
S    6    1.000000
   1.35753497E+04    2.22458144E-04 
   2.03523337E+03    1.72327383E-03 
   4.63225624E+02    8.92557153E-03 
   1.31200196E+02    3.57279845E-02 
   4.28530159E+01    1.10762599E-01 
   1.55841858E+01    2.42956276E-01 
S    2    1.000000
   6.20671385E+00    4.14402634E-01 
   2.57648965E+00    2.37449687E-01 
S    1    1.000000
   5.76963394E-01    1.00000000E+00 
S    1    1.000000
   2.29728314E-01    1.00000000E+00 
S    1    1.000000
   9.51644400E-02    1.00000000E+00 
S    1    1.000000
   4.84754014E-02    1.00000000E+00 
P    4    1.000000
   3.46972322E+01    5.33336578E-03 
   7.95826228E+00    3.58641091E-02 
   2.37808269E+00    1.42158733E-01 
   8.14332082E-01    3.42704718E-01 
P    1    1.000000
   2.88875473E-01    4.64458224E-01 
P    1    1.000000
   1.00568237E-01    2.49557899E-01 
D    1    1.000000
   1.09700000E+00    1.00000000E+00 
D    1    1.000000
   3.18000000E-01    1.00000000E+00 
F    1    1.000000
   7.61000000E-01    1.00000000E+00 
****
C    0
S    6    1.000000
   1.35753497E+04    2.22458144E-04 
   2.03523337E+03    1.72327383E-03 
   4.63225624E+02    8.92557153E-03 
   1.31200196E+02    3.57279845E-02 
   4.28530159E+01    1.10762599E-01 
   1.55841858E+01    2.42956276E-01 
S    2    1.000000
   6.20671385E+00    4.14402634E-01 
   2.57648965E+00    2.37449687E-01 
S    1    1.000000
   5.76963394E-01    1.00000000E+00 
S    1    1.000000
   2.29728314E-01    1.00000000E+00 
S    1    1.000000
   9.51644400E-02    1.00000000E+00 
S    1    1.000000
   4.84754014E-02    1.00000000E+00 
P    4    1.000000
   3.46972322E+01    5.33336578E-03 
   7.95826228E+00    3.58641091E-02 
   2.37808269E+00    1.42158733E-01 
   8.14332082E-01    3.42704718E-01 
P    1    1.000000
   2.88875473E-01    4.64458224E-01 
P    1    1.000000
   1.00568237E-01    2.49557899E-01 
D    1    1.000000
   1.09700000E+00    1.00000000E+00 
D    1    1.000000
   3.18000000E-01    1.00000000E+00 
F    1    1.000000
   7.61000000E-01    1.00000000E+00 
****
C    0
S    6    1.000000
   1.35753497E+04    2.22458144E-04 
   2.03523337E+03    1.72327383E-03 
   4.63225624E+02    8.92557153E-03 
   1.31200196E+02    3.57279845E-02 
   4.28530159E+01    1.10762599E-01 
   1.55841858E+01    2.42956276E-01 
S    2    1.000000
   6.20671385E+00    4.14402634E-01 
   2.57648965E+00    2.37449687E-01 
S    1    1.000000
   5.76963394E-01    1.00000000E+00 
S    1    1.000000
   2.29728314E-01    1.00000000E+00 
S    1    1.000000
   9.51644400E-02    1.00000000E+00 
S    1    1.000000
   4.84754014E-02    1.00000000E+00 
P    4    1.000000
   3.46972322E+01    5.33336578E-03 
   7.95826228E+00    3.58641091E-02 
   2.37808269E+00    1.42158733E-01 
   8.14332082E-01    3.42704718E-01 
P    1    1.000000
   2.88875473E-01    4.64458224E-01 
P    1    1.000000
   1.00568237E-01    2.49557899E-01 
D    1    1.000000
   1.09700000E+00    1.00000000E+00 
D    1    1.000000
   3.18000000E-01    1.00000000E+00 
F    1    1.000000
   7.61000000E-01    1.00000000E+00 
****
O    0
S    6    1.000000
   2.70323826E+04    2.17263025E-04 
   4.05238714E+03    1.68386622E-03 
   9.22327227E+02    8.73956163E-03 
   2.61240710E+02    3.52399688E-02 
   8.53546414E+01    1.11535191E-01 
   3.10350352E+01    2.55889540E-01 
S    2    1.000000
   1.22608607E+01    3.97687309E-01 
   4.99870760E+00    2.46278494E-01 
S    1    1.000000
   1.17031082E+00    1.00000000E+00 
S    1    1.000000
   4.64747410E-01    1.00000000E+00 
S    1    1.000000
   1.85045364E-01    1.00000000E+00 
S    1    1.000000
   7.02880263E-02    1.00000000E+00 
P    4    1.000000
   6.32749548E+01    6.06851034E-03 
   1.46270494E+01    4.19125758E-02 
   4.45012235E+00    1.61538411E-01 
   1.52757996E+00    3.57069513E-01 
P    1    1.000000
   5.29351179E-01    4.47942075E-01 
P    1    1.000000
   1.74784213E-01    2.44460697E-01 
P    1    1.000000
   5.11127457E-02    1.00000000E+00 
D    1    1.000000
   2.31400000E+00    1.00000000E+00 
D    1    1.000000
   6.45000000E-01    1.00000000E+00 
F    1    1.000000
   1.42800000E+00    1.00000000E+00 
****
H    0
S    3    1.000000
   3.40613410E+01    6.02519780E-03 
   5.12357460E+00    4.50210940E-02 
   1.16466260E+00    2.01897260E-01 
S    1    1.000000
   3.27230410E-01    1.00000000E+00 
S    1    1.000000
   1.03072410E-01    1.00000000E+00 
P    1    1.000000
   8.00000000E-01    1.00000000E+00 
****
O    0
S    6    1.000000
   2.70323826E+04    2.17263025E-04 
   4.05238714E+03    1.68386622E-03 
   9.22327227E+02    8.73956163E-03 
   2.61240710E+02    3.52399688E-02 
   8.53546414E+01    1.11535191E-01 
   3.10350352E+01    2.55889540E-01 
S    2    1.000000
   1.22608607E+01    3.97687309E-01 
   4.99870760E+00    2.46278494E-01 
S    1    1.000000
   1.17031082E+00    1.00000000E+00 
S    1    1.000000
   4.64747410E-01    1.00000000E+00 
S    1    1.000000
   1.85045364E-01    1.00000000E+00 
S    1    1.000000
   7.02880263E-02    1.00000000E+00 
P    4    1.000000
   6.32749548E+01    6.06851034E-03 
   1.46270494E+01    4.19125758E-02 
   4.45012235E+00    1.61538411E-01 
   1.52757996E+00    3.57069513E-01 
P    1    1.000000
   5.29351179E-01    4.47942075E-01 
P    1    1.000000
   1.74784213E-01    2.44460697E-01 
P    1    1.000000
   5.11127457E-02    1.00000000E+00 
D    1    1.000000
   2.31400000E+00    1.00000000E+00 
D    1    1.000000
   6.45000000E-01    1.00000000E+00 
F    1    1.000000
   1.42800000E+00    1.00000000E+00 
****
H    0
S    3    1.000000
   3.40613410E+01    6.02519780E-03 
   5.12357460E+00    4.50210940E-02 
   1.16466260E+00    2.01897260E-01 
S    1    1.000000
   3.27230410E-01    1.00000000E+00 
S    1    1.000000
   1.03072410E-01    1.00000000E+00 
P    1    1.000000
   8.00000000E-01    1.00000000E+00 
****
H    0
S    3    1.000000
   3.40613410E+01    6.02519780E-03 
   5.12357460E+00    4.50210940E-02 
   1.16466260E+00    2.01897260E-01 
S    1    1.000000
   3.27230410E-01    1.00000000E+00 
S    1    1.000000
   1.03072410E-01    1.00000000E+00 
P    1    1.000000
   8.00000000E-01    1.00000000E+00 
****
O    0
S    6    1.000000
   2.70323826E+04    2.17263025E-04 
   4.05238714E+03    1.68386622E-03 
   9.22327227E+02    8.73956163E-03 
   2.61240710E+02    3.52399688E-02 
   8.53546414E+01    1.11535191E-01 
   3.10350352E+01    2.55889540E-01 
S    2    1.000000
   1.22608607E+01    3.97687309E-01 
   4.99870760E+00    2.46278494E-01 
S    1    1.000000
   1.17031082E+00    1.00000000E+00 
S    1    1.000000
   4.64747410E-01    1.00000000E+00 
S    1    1.000000
   1.85045364E-01    1.00000000E+00 
S    1    1.000000
   7.02880263E-02    1.00000000E+00 
P    4    1.000000
   6.32749548E+01    6.06851034E-03 
   1.46270494E+01    4.19125758E-02 
   4.45012235E+00    1.61538411E-01 
   1.52757996E+00    3.57069513E-01 
P    1    1.000000
   5.29351179E-01    4.47942075E-01 
P    1    1.000000
   1.74784213E-01    2.44460697E-01 
P    1    1.000000
   5.11127457E-02    1.00000000E+00 
D    1    1.000000
   2.31400000E+00    1.00000000E+00 
D    1    1.000000
   6.45000000E-01    1.00000000E+00 
F    1    1.000000
   1.42800000E+00    1.00000000E+00 
****
H    0
S    3    1.000000
   3.40613410E+01    6.02519780E-03 
   5.12357460E+00    4.50210940E-02 
   1.16466260E+00    2.01897260E-01 
S    1    1.000000
   3.27230410E-01    1.00000000E+00 
S    1    1.000000
   1.03072410E-01    1.00000000E+00 
P    1    1.000000
   8.00000000E-01    1.00000000E+00 
****
O    0
S    6    1.000000
   2.70323826E+04    2.17263025E-04 
   4.05238714E+03    1.68386622E-03 
   9.22327227E+02    8.73956163E-03 
   2.61240710E+02    3.52399688E-02 
   8.53546414E+01    1.11535191E-01 
   3.10350352E+01    2.55889540E-01 
S    2    1.000000
   1.22608607E+01    3.97687309E-01 
   4.99870760E+00    2.46278494E-01 
S    1    1.000000
   1.17031082E+00    1.00000000E+00 
S    1    1.000000
   4.64747410E-01    1.00000000E+00 
S    1    1.000000
   1.85045364E-01    1.00000000E+00 
S    1    1.000000
   7.02880263E-02    1.00000000E+00 
P    4    1.000000
   6.32749548E+01    6.06851034E-03 
   1.46270494E+01    4.19125758E-02 
   4.45012235E+00    1.61538411E-01 
   1.52757996E+00    3.57069513E-01 
P    1    1.000000
   5.29351179E-01    4.47942075E-01 
P    1    1.000000
   1.74784213E-01    2.44460697E-01 
P    1    1.000000
   5.11127457E-02    1.00000000E+00 
D    1    1.000000
   2.31400000E+00    1.00000000E+00 
D    1    1.000000
   6.45000000E-01    1.00000000E+00 
F    1    1.000000
   1.42800000E+00    1.00000000E+00 
****
O    0
S    6    1.000000
   2.70323826E+04    2.17263025E-04 
   4.05238714E+03    1.68386622E-03 
   9.22327227E+02    8.73956163E-03 
   2.61240710E+02    3.52399688E-02 
   8.53546414E+01    1.11535191E-01 
   3.10350352E+01    2.55889540E-01 
S    2    1.000000
   1.22608607E+01    3.97687309E-01 
   4.99870760E+00    2.46278494E-01 
S    1    1.000000
   1.17031082E+00    1.00000000E+00 
S    1    1.000000
   4.64747410E-01    1.00000000E+00 
S    1    1.000000
   1.85045364E-01    1.00000000E+00 
S    1    1.000000
   7.02880263E-02    1.00000000E+00 
P    4    1.000000
   6.32749548E+01    6.06851034E-03 
   1.46270494E+01    4.19125758E-02 
   4.45012235E+00    1.61538411E-01 
   1.52757996E+00    3.57069513E-01 
P    1    1.000000
   5.29351179E-01    4.47942075E-01 
P    1    1.000000
   1.74784213E-01    2.44460697E-01 
P    1    1.000000
   5.11127457E-02    1.00000000E+00 
D    1    1.000000
   2.31400000E+00    1.00000000E+00 
D    1    1.000000
   6.45000000E-01    1.00000000E+00 
F    1    1.000000
   1.42800000E+00    1.00000000E+00 
****
H    0
S    3    1.000000
   3.40613410E+01    6.02519780E-03 
   5.12357460E+00    4.50210940E-02 
   1.16466260E+00    2.01897260E-01 
S    1    1.000000
   3.27230410E-01    1.00000000E+00 
S    1    1.000000
   1.03072410E-01    1.00000000E+00 
P    1    1.000000
   8.00000000E-01    1.00000000E+00 
****
H    0
S    3    1.000000
   3.40613410E+01    6.02519780E-03 
   5.12357460E+00    4.50210940E-02 
   1.16466260E+00    2.01897260E-01 
S    1    1.000000
   3.27230410E-01    1.00000000E+00 
S    1    1.000000
   1.03072410E-01    1.00000000E+00 
P    1    1.000000
   8.00000000E-01    1.00000000E+00 
****
H    0
S    3    1.000000
   3.40613410E+01    6.02519780E-03 
   5.12357460E+00    4.50210940E-02 
   1.16466260E+00    2.01897260E-01 
S    1    1.000000
   3.27230410E-01    1.00000000E+00 
S    1    1.000000
   1.03072410E-01    1.00000000E+00 
P    1    1.000000
   8.00000000E-01    1.00000000E+00 
****
H    0
S    3    1.000000
   3.40613410E+01    6.02519780E-03 
   5.12357460E+00    4.50210940E-02 
   1.16466260E+00    2.01897260E-01 
S    1    1.000000
   3.27230410E-01    1.00000000E+00 
S    1    1.000000
   1.03072410E-01    1.00000000E+00 
P    1    1.000000
   8.00000000E-01    1.00000000E+00 
****
H    0
S    3    1.000000
   3.40613410E+01    6.02519780E-03 
   5.12357460E+00    4.50210940E-02 
   1.16466260E+00    2.01897260E-01 
S    1    1.000000
   3.27230410E-01    1.00000000E+00 
S    1    1.000000
   1.03072410E-01    1.00000000E+00 
P    1    1.000000
   8.00000000E-01    1.00000000E+00 
****
H    0
S    3    1.000000
   3.40613410E+01    6.02519780E-03 
   5.12357460E+00    4.50210940E-02 
   1.16466260E+00    2.01897260E-01 
S    1    1.000000
   3.27230410E-01    1.00000000E+00 
S    1    1.000000
   1.03072410E-01    1.00000000E+00 
P    1    1.000000
   8.00000000E-01    1.00000000E+00 
****
$end
-----------------------------------------------------------------------
 There are 298 shells and 750 basis functions

 Total QAlloc Memory Limit  64000 MB
 Mega-Array Size      1956 MB
 MEM_STATIC part      2000 MB

 User-specified dielectric constants (eps_0 = 78.39, eps_inf = 1.78)
 Using C-PCM dielectric factor f(eps) = (eps-1)/eps = 0.987243
 Static dielectric constant eps = 78.39
 Discretize the solute cavity surface with Lebedev spheres
	Using 110 Lebedev grid points for each H atom
	Using 194 Lebedev grid points for other atoms
	Atomic van der Waals radii (Bondi set) will be scaled by 1.20
 Using smooth SwiG surface discretization
 Remove points where switching function is < 1.0e-08
 Keep 2144 surface tesserae and discard 3030 interior tesserae
 Molecular Surface Area = 297.637 Angst**2

 A cutoff of  1.0D-12 yielded  32193 shell pairs
 There are    192263 function pairs (    244482 Cartesian)
 Smallest overlap matrix eigenvalue = 3.80E-06

 Scale SEOQF with 1.000000e-01/1.000000e-01/1.000000e-02

 Standard Electronic Orientation quadrupole field applied
 Nucleus-field energy     =     0.0000000122 hartrees
 Guess from superposition of atomic densities
 Warning:  Energy on first SCF cycle will be non-variational
 SAD guess density has 148.000000 electrons

 -----------------------------------------------------------------------
  General SCF calculation program by
  Eric Jon Sundstrom, Paul Horn, Yuezhi Mao, Dmitri Zuev, Alec White,
  David Stuck, Shaama M.S., Shane Yost, Joonho Lee, David Small,
  Daniel Levine, Susi Lehtola, Hugh Burton, Evgeny Epifanovsky,
  Bang C. Huynh
 -----------------------------------------------------------------------
 Exchange:     0.1900 Hartree-Fock + 0.3500 B88 + 0.4600 muB88 + LR-HF
 Correlation:  0.1900 VWN5 + 0.8100 LYP
 Using SG-1 standard quadrature grid
 using 16 threads for integral computing
 -------------------------------------------------------
 OpenMP Integral computing Module                
 Release: version 1.0, May 2013, Q-Chem Inc. Pittsburgh 
 -------------------------------------------------------
 C-PCM solvent model [f = (eps-1)/eps], solve by matrix inversion
 DFT Correlation          Energy =  -6.03823507513890
 DFT Exchange             Energy = -92.74029329323751
 HF Exchange              Energy = -38.00516330175003
 One-Electron             Energy = -4497.90789723134458
 SCRF wf-dependent energy Energy =   0.00000000000000
 Total Coulomb            Energy = 2035.23557518855864
 Nuclear repulsion Energy = 1564.26657637576955
 A restricted SCF calculation will be
 performed using DIIS
 SCF converges when DIIS error is below 1.0e-08
 DFT Correlation          Energy =  -6.03823507513890
 DFT Exchange             Energy = -92.74029329323751
 HF Exchange              Energy = -38.00516330175003
 One-Electron             Energy = -4497.90789723134458
 SCRF wf-dependent energy Energy =   0.00000000000000
 Total Coulomb            Energy = 2035.23557518855864
 ---------------------------------------
  Cycle       Energy         DIIS error
 ---------------------------------------
 DFT Correlation          Energy =  -6.12102374339146
 DFT Exchange             Energy = -94.72962790037008
 HF Exchange              Energy = -36.71308986811850
 One-Electron             Energy = -4516.46760127328162
 SCRF wf-dependent energy Energy =  -1.53493520421716
 Total Coulomb            Energy = 2062.71159565820517
 Nuclear repulsion Energy = 1564.26657637576955
    1   -1035.1894373371      2.12e-02  
 DFT Correlation          Energy =  -6.06087983673908
 DFT Exchange             Energy = -92.98784527602068
 HF Exchange              Energy = -36.22177645989782
 One-Electron             Energy = -4505.36742698060698
 SCRF wf-dependent energy Energy =   0.91496206751344
 Total Coulomb            Energy = 2047.03814085182898
 Nuclear repulsion Energy = 1564.26657637576955
    2   -1028.5881059554      2.35e-03  
 DFT Correlation          Energy =  -6.08782517439118
 DFT Exchange             Energy = -93.83078011553779
 HF Exchange              Energy = -36.47862569982394
 One-Electron             Energy = -4507.06777724199947
 SCRF wf-dependent energy Energy =  -1.41066238071676
 Total Coulomb            Energy = 2051.71940233384294
 Nuclear repulsion Energy = 1564.26657637576955
    3   -1028.4182492582      3.06e-03  
 DFT Correlation          Energy =  -6.09024011629431
 DFT Exchange             Energy = -93.87094306087535
 HF Exchange              Energy = -36.48814798534392
 One-Electron             Energy = -4509.50595833875923
 SCRF wf-dependent energy Energy =  -0.80532956246930
 Total Coulomb            Energy = 2053.58715719596375
 Nuclear repulsion Energy = 1564.26657637576955
    4   -1028.8896919029      5.80e-04  
 DFT Correlation          Energy =  -6.08990464432816
 DFT Exchange             Energy = -93.86056744931103
 HF Exchange              Energy = -36.48633559013071
 One-Electron             Energy = -4509.43302737777776
 SCRF wf-dependent energy Energy =  -0.81495769553680
 Total Coulomb            Energy = 2053.50938718869611
 Nuclear repulsion Energy = 1564.26657637576955
    5   -1028.9068854920      1.96e-04  
 DFT Correlation          Energy =  -6.08967196981812
 DFT Exchange             Energy = -93.85844580507042
 HF Exchange              Energy = -36.48670615923173
 One-Electron             Energy = -4509.23182226273093
 SCRF wf-dependent energy Energy =  -0.85134300209984
 Total Coulomb            Energy = 2053.34230608746066
 Nuclear repulsion Energy = 1564.26657637576955
    6   -1028.9088291926      6.38e-05  
 DFT Correlation          Energy =  -6.08964871158759
 DFT Exchange             Energy = -93.85751540524349
 HF Exchange              Energy = -36.48674156126621
 One-Electron             Energy = -4509.24933370763756
 SCRF wf-dependent energy Energy =  -0.84044105026169
 Total Coulomb            Energy = 2053.34795934033764
 Nuclear repulsion Energy = 1564.26657637576955
    7   -1028.9091067357      1.92e-05  
 DFT Correlation          Energy =  -6.08971303767378
 DFT Exchange             Energy = -93.85898323290759
 HF Exchange              Energy = -36.48727938746845
 One-Electron             Energy = -4509.28252708785749
 SCRF wf-dependent energy Energy =  -0.83637238509186
 Total Coulomb            Energy = 2053.37914136015343
 Nuclear repulsion Energy = 1564.26657637576955
    8   -1028.9091447199      7.91e-06  
 DFT Correlation          Energy =  -6.08970794160139
 DFT Exchange             Energy = -93.85898413486251
 HF Exchange              Energy = -36.48738239871943
 One-Electron             Energy = -4509.28739755866809
 SCRF wf-dependent energy Energy =  -0.83292905740882
 Total Coulomb            Energy = 2053.38066262076973
 Nuclear repulsion Energy = 1564.26657637576955
    9   -1028.9091573951      3.68e-06  
 DFT Correlation          Energy =  -6.08970411038764
 DFT Exchange             Energy = -93.85883261848173
 HF Exchange              Energy = -36.48736467980743
 One-Electron             Energy = -4509.28601334780251
 SCRF wf-dependent energy Energy =  -0.83253588434127
 Total Coulomb            Energy = 2053.37871132258988
 Nuclear repulsion Energy = 1564.26657637576955
   10   -1028.9091620947      1.91e-06  
 DFT Correlation          Energy =  -6.08970955371940
 DFT Exchange             Energy = -93.85899824740019
 HF Exchange              Energy = -36.48741089651571
 One-Electron             Energy = -4509.29061133120376
 SCRF wf-dependent energy Energy =  -0.83139250680301
 Total Coulomb            Energy = 2053.38238298447550
 Nuclear repulsion Energy = 1564.26657637576955
   11   -1028.9091629425      7.47e-07  
 DFT Correlation          Energy =  -6.08970964521027
 DFT Exchange             Energy = -93.85897317141361
 HF Exchange              Energy = -36.48740276172757
 One-Electron             Energy = -4509.29101548452672
 SCRF wf-dependent energy Energy =  -0.83115623735898
 Total Coulomb            Energy = 2053.38251771596379
 Nuclear repulsion Energy = 1564.26657637576955
   12   -1028.9091631754      4.17e-07  
 DFT Correlation          Energy =  -6.08970968097436
 DFT Exchange             Energy = -93.85898561611504
 HF Exchange              Energy = -36.48740558230661
 One-Electron             Energy = -4509.29113225920446
 SCRF wf-dependent energy Energy =  -0.83107372441236
 Total Coulomb            Energy = 2053.38256727195721
 Nuclear repulsion Energy = 1564.26657637576955
   13   -1028.9091632085      1.98e-07  
 DFT Correlation          Energy =  -6.08970970868879
 DFT Exchange             Energy = -93.85898438077847
 HF Exchange              Energy = -36.48740493252841
 One-Electron             Energy = -4509.29121599463633
 SCRF wf-dependent energy Energy =  -0.83104472784839
 Total Coulomb            Energy = 2053.38262015331702
 Nuclear repulsion Energy = 1564.26657637576955
   14   -1028.9091632153      4.12e-08  
 DFT Correlation          Energy =  -6.08970972453863
 DFT Exchange             Energy = -93.85898478526740
 HF Exchange              Energy = -36.48740492441934
 One-Electron             Energy = -4509.29122719251245
 SCRF wf-dependent energy Energy =  -0.83103982802550
 Total Coulomb            Energy = 2053.38262686358257
 Nuclear repulsion Energy = 1564.26657637576955
   15   -1028.9091632154      1.97e-08  
   16   -1028.9091632154      5.14e-09  Convergence criterion met
 ---------------------------------------
 DFT Correlation          Energy =  -6.08970972453863
 DFT Exchange             Energy = -93.85898478526740
 HF Exchange              Energy = -36.48740492441934
 One-Electron             Energy = -4509.29122719251245
 SCRF wf-dependent energy Energy =  -0.83103982802550
 Total Coulomb            Energy = 2053.38262686358257
 Final Alpha MO Eigenvalues
            1           2           3           4           5           6
    1 -19.2957403 -19.2480120 -19.2474682 -19.2454242 -19.2291419 -19.1586127
            7           8           9          10          11          12
    1 -10.3689145 -10.3465321 -10.3417908 -10.3411000 -10.3388240 -10.3159322
           13          14          15          16          17          18
    1 -10.3061657 -10.2881412 -10.2795309 -10.2687600 -10.2602955 -10.2598442
           19          20          21          22          23          24
    1 -10.2558220 -10.2551099 -10.2385503  -1.2235187  -1.1640076  -1.1631595
           25          26          27          28          29          30
    1  -1.1585256  -1.1411811  -1.0772525  -0.9721214  -0.9460270  -0.9185812
           31          32          33          34          35          36
    1  -0.8824372  -0.8447740  -0.8317983  -0.8171420  -0.7648111  -0.7621202
           37          38          39          40          41          42
    1  -0.7195027  -0.7054727  -0.6948809  -0.6708726  -0.6473254  -0.6331393
           43          44          45          46          47          48
    1  -0.6239393  -0.6099744  -0.5868186  -0.5736169  -0.5713412  -0.5600685
           49          50          51          52          53          54
    1  -0.5495167  -0.5343434  -0.5192500  -0.5162172  -0.5161512  -0.5019441
           55          56          57          58          59          60
    1  -0.4992576  -0.4949153  -0.4938515  -0.4822784  -0.4815726  -0.4726678
           61          62          63          64          65          66
    1  -0.4557215  -0.4463538  -0.4365649  -0.4313409  -0.4304826  -0.4210671
           67          68          69          70          71          72
    1  -0.4204473  -0.3940966  -0.3631066  -0.3224973  -0.3143337  -0.3058991
           73          74          75          76          77          78
    1  -0.2885621  -0.2401687  -0.0687618   0.0072547   0.0272373   0.0317061
           79          80          81          82          83          84
    1   0.0355443   0.0375019   0.0455882   0.0456439   0.0545116   0.0607313
           85          86          87          88          89          90
    1   0.0633098   0.0709402   0.0792631   0.0793127   0.0866806   0.0905436
           91          92          93          94          95          96
    1   0.0983121   0.1006635   0.1027453   0.1102008   0.1108136   0.1200438
           97          98          99         100         101         102
    1   0.1202645   0.1224307   0.1305870   0.1379802   0.1397844   0.1463271
          103         104         105         106         107         108
    1   0.1507324   0.1561624   0.1592380   0.1651711   0.1734793   0.1828353
          109         110         111         112         113         114
    1   0.1841126   0.1899199   0.2016326   0.2049067   0.2107450   0.2161673
          115         116         117         118         119         120
    1   0.2233163   0.2238670   0.2288476   0.2326611   0.2361558   0.2416914
          121         122         123         124         125         126
    1   0.2458416   0.2552021   0.2610541   0.2654764   0.2738606   0.2762282
          127         128         129         130         131         132
    1   0.2769051   0.2796009   0.2811933   0.2913315   0.3004815   0.3032204
          133         134         135         136         137         138
    1   0.3068621   0.3081003   0.3141841   0.3181191   0.3186315   0.3213331
          139         140         141         142         143         144
    1   0.3237178   0.3301273   0.3342365   0.3362413   0.3375362   0.3393924
          145         146         147         148         149         150
    1   0.3511825   0.3591185   0.3622124   0.3679594   0.3732379   0.3795736
          151         152         153         154         155         156
    1   0.3802448   0.3807693   0.3850842   0.3910802   0.3991372   0.4036974
          157         158         159         160         161         162
    1   0.4076441   0.4191487   0.4230623   0.4269350   0.4299921   0.4376330
          163         164         165         166         167         168
    1   0.4378395   0.4436820   0.4500442   0.4534829   0.4585527   0.4650434
          169         170         171         172         173         174
    1   0.4655423   0.4725705   0.4787139   0.4805233   0.4885538   0.4891271
          175         176         177         178         179         180
    1   0.4922817   0.4959372   0.5014755   0.5066465   0.5102616   0.5227320
          181         182         183         184         185         186
    1   0.5301936   0.5329548   0.5344495   0.5460620   0.5497482   0.5500490
          187         188         189         190         191         192
    1   0.5574573   0.5703995   0.5742185   0.5821794   0.5831388   0.5837167
          193         194         195         196         197         198
    1   0.5879205   0.5939399   0.6093636   0.6202437   0.6210178   0.6281124
          199         200         201         202         203         204
    1   0.6327071   0.6370281   0.6431329   0.6440921   0.6468438   0.6501000
          205         206         207         208         209         210
    1   0.6553438   0.6620284   0.6673738   0.6705533   0.6714210   0.6842038
          211         212         213         214         215         216
    1   0.6943814   0.6951481   0.6958078   0.7067422   0.7158971   0.7204575
          217         218         219         220         221         222
    1   0.7309904   0.7363957   0.7382106   0.7414762   0.7563869   0.7593286
          223         224         225         226         227         228
    1   0.7620251   0.7720831   0.7731627   0.7758815   0.7833604   0.7870612
          229         230         231         232         233         234
    1   0.7957985   0.7989592   0.8048209   0.8148713   0.8199005   0.8216052
          235         236         237         238         239         240
    1   0.8259536   0.8409534   0.8413455   0.8444432   0.8488980   0.8643594
          241         242         243         244         245         246
    1   0.8717383   0.8791074   0.8837734   0.8880741   0.9060344   0.9115269
          247         248         249         250         251         252
    1   0.9139354   0.9201057   0.9269083   0.9358602   0.9422613   0.9437093
          253         254         255         256         257         258
    1   0.9530769   0.9731218   0.9768439   0.9905979   1.0124091   1.0147313
          259         260         261         262         263         264
    1   1.0358954   1.0408161   1.0435984   1.0522082   1.0677460   1.0688885
          265         266         267         268         269         270
    1   1.0823708   1.0925142   1.1045718   1.1182040   1.1199971   1.1235643
          271         272         273         274         275         276
    1   1.1266897   1.1278250   1.1503374   1.1571638   1.1594290   1.1626570
          277         278         279         280         281         282
    1   1.1867444   1.1875157   1.1949495   1.1985999   1.2003662   1.2049566
          283         284         285         286         287         288
    1   1.2270392   1.2317581   1.2394985   1.2540219   1.2571241   1.2666423
          289         290         291         292         293         294
    1   1.2934496   1.3082051   1.3090873   1.3291598   1.3356823   1.3408018
          295         296         297         298         299         300
    1   1.3543713   1.3607744   1.3744399   1.3904734   1.3920145   1.4028008
          301         302         303         304         305         306
    1   1.4112312   1.4182918   1.4245736   1.4373605   1.4460134   1.4564903
          307         308         309         310         311         312
    1   1.4605761   1.4732218   1.4769634   1.4894300   1.5046830   1.5091493
          313         314         315         316         317         318
    1   1.5104895   1.5332217   1.5336024   1.5375815   1.5408724   1.5538759
          319         320         321         322         323         324
    1   1.5588442   1.5862070   1.5886303   1.5940014   1.6054829   1.6089486
          325         326         327         328         329         330
    1   1.6149508   1.6361267   1.6382340   1.6598444   1.6743306   1.6745266
          331         332         333         334         335         336
    1   1.6817954   1.7018503   1.7056875   1.7111349   1.7150147   1.7204688
          337         338         339         340         341         342
    1   1.7265974   1.7277044   1.7338335   1.7423470   1.7547524   1.7661125
          343         344         345         346         347         348
    1   1.7696787   1.7786247   1.7814449   1.7848222   1.8010225   1.8080428
          349         350         351         352         353         354
    1   1.8461136   1.8574225   1.8605697   1.8679662   1.8878141   1.9031219
          355         356         357         358         359         360
    1   1.9091554   1.9098560   1.9175883   1.9304083   1.9371019   1.9449436
          361         362         363         364         365         366
    1   1.9702220   1.9719660   1.9897645   1.9915589   1.9997118   2.0017161
          367         368         369         370         371         372
    1   2.0103363   2.0224200   2.0300816   2.0398609   2.0567964   2.0680143
          373         374         375         376         377         378
    1   2.0739301   2.0849956   2.0917420   2.0995905   2.1153351   2.1197981
          379         380         381         382         383         384
    1   2.1303213   2.1405988   2.1528968   2.1608501   2.1770826   2.1832000
          385         386         387         388         389         390
    1   2.1887259   2.1959666   2.2041495   2.2138781   2.2193248   2.2238967
          391         392         393         394         395         396
    1   2.2257503   2.2378871   2.2392110   2.2619300   2.2681700   2.2777401
          397         398         399         400         401         402
    1   2.2950081   2.2953089   2.3063112   2.3209855   2.3433042   2.3516747
          403         404         405         406         407         408
    1   2.3595572   2.3665414   2.3824066   2.3868465   2.4023497   2.4100196
          409         410         411         412         413         414
    1   2.4137321   2.4433549   2.4494583   2.4573439   2.4677101   2.4810765
          415         416         417         418         419         420
    1   2.4987799   2.5203822   2.5385405   2.5391065   2.5528823   2.5699802
          421         422         423         424         425         426
    1   2.5722248   2.5961019   2.6000654   2.6064120   2.6111868   2.6383428
          427         428         429         430         431         432
    1   2.6406978   2.6623458   2.6627833   2.6724773   2.6848137   2.6933833
          433         434         435         436         437         438
    1   2.6998090   2.7150599   2.7162815   2.7224752   2.7316231   2.7344736
          439         440         441         442         443         444
    1   2.7541441   2.7557789   2.7670982   2.7776128   2.7788840   2.7933239
          445         446         447         448         449         450
    1   2.8024344   2.8091088   2.8161937   2.8264996   2.8334201   2.8399898
          451         452         453         454         455         456
    1   2.8497711   2.8654938   2.8700890   2.8796924   2.8803748   2.8933799
          457         458         459         460         461         462
    1   2.8977719   2.8997208   2.9059036   2.9178317   2.9233605   2.9398242
          463         464         465         466         467         468
    1   2.9403644   2.9523805   2.9570756   2.9656307   2.9674737   2.9775157
          469         470         471         472         473         474
    1   2.9777462   2.9992807   3.0029898   3.0078777   3.0191094   3.0261025
          475         476         477         478         479         480
    1   3.0330037   3.0346502   3.0434780   3.0489405   3.0597859   3.0837025
          481         482         483         484         485         486
    1   3.0846851   3.0893238   3.0970062   3.1012576   3.1192771   3.1267298
          487         488         489         490         491         492
    1   3.1345094   3.1389714   3.1523712   3.1589354   3.1716923   3.1722487
          493         494         495         496         497         498
    1   3.1869408   3.1875007   3.1959826   3.1998644   3.2099859   3.2188641
          499         500         501         502         503         504
    1   3.2289414   3.2369967   3.2416176   3.2522956   3.2533904   3.2558581
          505         506         507         508         509         510
    1   3.2685257   3.2736002   3.2779142   3.2849044   3.2930535   3.2975435
          511         512         513         514         515         516
    1   3.3042529   3.3177468   3.3292658   3.3321237   3.3431207   3.3436675
          517         518         519         520         521         522
    1   3.3502518   3.3667937   3.3794104   3.3887126   3.3984986   3.4104603
          523         524         525         526         527         528
    1   3.4186635   3.4224555   3.4320826   3.4332744   3.4506497   3.4510118
          529         530         531         532         533         534
    1   3.4583767   3.4637642   3.4711506   3.4782968   3.4848596   3.4936338
          535         536         537         538         539         540
    1   3.4962198   3.5011846   3.5088060   3.5169837   3.5207428   3.5253460
          541         542         543         544         545         546
    1   3.5298081   3.5391167   3.5622668   3.5658968   3.5682980   3.5837539
          547         548         549         550         551         552
    1   3.5967637   3.6026025   3.6157486   3.6226414   3.6229594   3.6308692
          553         554         555         556         557         558
    1   3.6435351   3.6535214   3.6547761   3.6729127   3.6912359   3.7089282
          559         560         561         562         563         564
    1   3.7167426   3.7240622   3.7462324   3.7546945   3.7771536   3.7922754
          565         566         567         568         569         570
    1   3.8020542   3.8148687   3.8248970   3.8564001   3.8651297   3.8926491
          571         572         573         574         575         576
    1   3.8938180   3.9160214   3.9301969   3.9400129   3.9658031   3.9660748
          577         578         579         580         581         582
    1   3.9858662   4.0183419   4.0347363   4.0363539   4.0497889   4.0545122
          583         584         585         586         587         588
    1   4.0815659   4.0885727   4.1003302   4.1159001   4.1207156   4.1298654
          589         590         591         592         593         594
    1   4.1407911   4.1462990   4.1643818   4.1910412   4.1915974   4.2305186
          595         596         597         598         599         600
    1   4.2409967   4.2525168   4.2583545   4.2613322   4.2720239   4.2821088
          601         602         603         604         605         606
    1   4.3015907   4.3077106   4.3166438   4.3266993   4.3330518   4.3517412
          607         608         609         610         611         612
    1   4.3879097   4.4062821   4.4199445   4.4416663   4.4509931   4.4731019
          613         614         615         616         617         618
    1   4.5021027   4.5169959   4.5338187   4.5488075   4.5838802   4.5967823
          619         620         621         622         623         624
    1   4.6240348   4.6409089   4.6472974   4.6751115   4.6843153   4.6929427
          625         626         627         628         629         630
    1   4.6982514   4.7093308   4.7533942   4.7825186   4.8021996   4.8339019
          631         632         633         634         635         636
    1   4.8565688   4.8788660   4.9108468   4.9338630   4.9406512   4.9448902
          637         638         639         640         641         642
    1   4.9778304   4.9884441   5.0205754   5.0469511   5.0706442   5.0938733
          643         644         645         646         647         648
    1   5.1296215   5.1481840   5.1859580   5.2037246   5.2573456   5.2919308
          649         650         651         652         653         654
    1   5.3000708   5.3099486   5.3141556   5.3163960   5.3192286   5.3355728
          655         656         657         658         659         660
    1   5.3525895   5.3712645   5.3795294   5.4215984   5.4634990   5.4693885
          661         662         663         664         665         666
    1   5.5173202   5.5195647   5.5221579   5.5261656   5.5359366   5.5583546
          667         668         669         670         671         672
    1   5.5635079   5.5787591   5.5979062   5.6582080   5.6657620   5.6720338
          673         674         675         676         677         678
    1   5.7306300   5.8035422   5.8050212   5.8130709   5.8162244   5.8592118
          679         680         681         682         683         684
    1   5.8666897   5.8957295   5.9959361   6.0503353   6.0559628   6.0856180
          685         686         687         688         689         690
    1   6.1111219   6.1508243   6.2371941   6.2564396   6.2668471   6.3916774
          691         692         693         694         695         696
    1   6.4086743   6.4274421   6.4497162   6.4509345   6.4647743   6.4704759
          697         698         699         700         701         702
    1   6.4781894   6.4799427   6.4869058   6.5008285   6.5685645   6.6590540
          703         704         705         706         707         708
    1   6.6845544   6.7242862   6.7711389   6.7738518   6.7782023   6.7865401
          709         710         711         712         713         714
    1   6.7870886   6.8875865   6.8956153   6.9286481   6.9301918   6.9425386
          715         716         717         718         719         720
    1   6.9512377   6.9778191   7.0403981   7.0840146   7.1021725   7.1237447
          721         722         723         724         725         726
    1   7.1561083   7.2197596   7.2622921   7.3707005   7.4039274   7.4193456
          727         728         729         730         731         732
    1   7.4361508   7.5056451   7.5804715  22.4514909  22.5894103  22.7962598
          733         734         735         736         737         738
    1  22.8228139  22.8394921  22.8937626  22.9325726  23.0010903  23.0325973
          739         740         741         742         743         744
    1  23.0679441  23.1322458  23.2068982  23.3602135  23.5959788  23.6778483
          745         746         747         748         749         750
    1  44.0429201  44.1121188  44.1453184  44.1692036  44.2460352  44.7185286
 SCF time:   CPU 4906.47s  wall 415.00s 
 DFT Correlation          Energy =  -6.08970972453863
 DFT Exchange             Energy = -93.85898478526740
 HF Exchange              Energy = -36.48740492441934
 One-Electron             Energy = -4509.29122719251245
 SCRF wf-dependent energy Energy =  -0.83103982802550
 Total Coulomb            Energy = 2053.38262686358257
 Nuclear repulsion Energy = 1564.26657637576955

************** Final PCM Free Energy Summary **************
 G_electrostatic  =      -0.07340521 hartree =     -46.06246527 kcal/mol
 G_cavitation     =       0.00000000 hartree =       0.00000000 kcal/mol
 G_dispersion     =       0.00000000 hartree =       0.00000000 kcal/mol
 G_repulsion      =       0.00000000 hartree =       0.00000000 kcal/mol
 --------------------------------------------------
 Non-electrostatic Free Energy =       0.00000000 hartree =       0.00000000 kcal/mol
 Total                         =      -0.07340521 hartree =     -46.06246527 kcal/mol
 --------------------------------------------------
 SCF Energy (H0 + V/2)                       =   -1028.90916322 
 Solute Internal Energy (H0)                 =   -1028.83575800 
 Total Free Energy (H0 + V/2 + non-elec)     =   -1028.90916322 hartree
                                             = -645650.24786796 kcal/mol
***********************************************************

 SCF   energy = -1028.90916322
 Total energy = -1028.90916322
 MAX_CIS_SUBSPACE fits in available memory
 Direct TDDFT/TDA calculation will be performed
 Exchange:     0.1900 Hartree-Fock + 0.3500 B88 + 0.4600 muB88 + LR-HF
 Correlation:  0.1900 VWN5 + 0.8100 LYP
 Using SG-1 standard quadrature grid
 Triplet excitation energies requested
 Singlet excitation energies requested
 Adding PCM contribution to the XC response (LR-PCM)
 Optical dielectric constant (eps_inf) =  1.78
 CIS energy converged when residual is below 10e- 6
 ---------------------------------------------------
 Iter    Rts Conv    Rts Left    Ttl Dev     Max Dev
 ---------------------------------------------------
   1         0           7      0.000997    0.000174
   2         0           7      0.000358    0.000069
   3         0           7      0.000140    0.000040
   4         0           7      0.000231    0.000165
   5         1           6      0.000072    0.000046
   6         4           3      0.000036    0.000024
   7         5           2      0.000027    0.000021
   8         6           1      0.000018    0.000015
   9         6           1      0.000014    0.000011
  10         6           1      0.000009    0.000006
  11         6           1      0.000005    0.000002
  12         7           0      0.000003    0.000001    Roots Converged
 ---------------------------------------------------
 Triplets done: starting singlet calculation
 ---------------------------------------------------
 Iter    Rts Conv    Rts Left    Ttl Dev     Max Dev
 ---------------------------------------------------
  13         0           7      0.002149    0.000549
  14         0           7      0.000567    0.000123
  15         0           7      0.000295    0.000089
  16         0           7      0.000199    0.000071
  17         0           7      0.000094    0.000037
  18         1           6      0.000059    0.000024
  19         3           4      0.000025    0.000011
  20         4           3      0.000075    0.000066
  21         5           2      0.000034    0.000029
  22         6           1      0.000013    0.000010
  23         6           1      0.000007    0.000004
  24         6           1      0.000004    0.000002
  25         7           0      0.000003    0.000001    Roots Converged
 ---------------------------------------------------
 
 ---------------------------------------------------
         TDDFT/TDA Excitation Energies              
 ---------------------------------------------------

 Excited state   1: excitation energy (eV) =       1.4557
 Total energy for state   1:                 -1028.85566564 au
    Multiplicity: Triplet
    Trans. Mom.:  0.0000 X   0.0000 Y   0.0000 Z
    Strength   :     0.0000000000
    D(   69) --> V(    1) amplitude =  0.0722
    D(   73) --> V(    2) amplitude = -0.0739
    D(   74) --> V(    1) amplitude =  0.9756

 Excited state   2: excitation energy (eV) =       2.7091
 Total energy for state   2:                 -1028.80960626 au
    Multiplicity: Triplet
    Trans. Mom.:  0.0000 X   0.0000 Y   0.0000 Z
    Strength   :     0.0000000000
    D(   69) --> V(    1) amplitude =  0.1901
    D(   70) --> V(    1) amplitude =  0.1869
    D(   72) --> V(    1) amplitude = -0.1161
    D(   72) --> V(    4) amplitude =  0.0771
    D(   73) --> V(    1) amplitude =  0.8315
    D(   73) --> V(    2) amplitude = -0.1213
    D(   74) --> V(    2) amplitude = -0.3519
    D(   74) --> V(    4) amplitude =  0.1338
    D(   74) --> V(   11) amplitude = -0.1056

 Excited state   3: excitation energy (eV) =       2.8150
 Total energy for state   3:                 -1028.80571563 au
    Multiplicity: Singlet
    Trans. Mom.:  0.0618 X   0.0635 Y  -4.7634 Z
    Strength   :     1.5653273334
    D(   73) --> V(    1) amplitude =  0.1543
    D(   74) --> V(    1) amplitude =  0.9647

 Excited state   4: excitation energy (eV) =       3.2153
 Total energy for state   4:                 -1028.79100152 au
    Multiplicity: Triplet
    Trans. Mom.:  0.0000 X   0.0000 Y   0.0000 Z
    Strength   :     0.0000000000
    D(   70) --> V(    1) amplitude =  0.2120
    D(   70) --> V(    7) amplitude =  0.0914
    D(   72) --> V(    1) amplitude =  0.8646
    D(   72) --> V(    2) amplitude =  0.1701
    D(   72) --> V(    4) amplitude = -0.1041
    D(   72) --> V(   11) amplitude =  0.0940
    D(   73) --> V(    2) amplitude = -0.0983
    D(   73) --> V(    4) amplitude =  0.1043
    D(   73) --> V(    7) amplitude =  0.0801
    D(   74) --> V(    2) amplitude = -0.1194
    D(   74) --> V(    4) amplitude = -0.0770
    D(   74) --> V(    7) amplitude = -0.2300

 Excited state   5: excitation energy (eV) =       3.5590
 Total energy for state   5:                 -1028.77837266 au
    Multiplicity: Triplet
    Trans. Mom.:  0.0000 X   0.0000 Y   0.0000 Z
    Strength   :     0.0000000000
    D(   71) --> V(    1) amplitude =  0.9001
    D(   71) --> V(    2) amplitude =  0.2564
    D(   71) --> V(    4) amplitude = -0.1755
    D(   71) --> V(   11) amplitude =  0.2272
    D(   71) --> V(   17) amplitude =  0.1107
    D(   71) --> V(   28) amplitude = -0.0874

 Excited state   6: excitation energy (eV) =       3.6613
 Total energy for state   6:                 -1028.77461205 au
    Multiplicity: Triplet
    Trans. Mom.:  0.0000 X   0.0000 Y   0.0000 Z
    Strength   :     0.0000000000
    D(   70) --> V(    1) amplitude = -0.3138
    D(   70) --> V(    2) amplitude =  0.1844
    D(   70) --> V(   11) amplitude = -0.0757
    D(   72) --> V(    1) amplitude =  0.1819
    D(   72) --> V(    2) amplitude = -0.1069
    D(   73) --> V(    1) amplitude =  0.4402
    D(   73) --> V(    2) amplitude =  0.0922
    D(   73) --> V(    4) amplitude =  0.1318
    D(   74) --> V(    2) amplitude =  0.7364
    D(   74) --> V(   11) amplitude =  0.0973

 Excited state   7: excitation energy (eV) =       3.7997
 Total energy for state   7:                 -1028.76952566 au
    Multiplicity: Singlet
    Trans. Mom.: -0.0095 X  -0.0815 Y   0.4927 Z
    Strength   :     0.0232238393
    D(   70) --> V(    1) amplitude = -0.1951
    D(   72) --> V(    1) amplitude = -0.2456
    D(   73) --> V(    1) amplitude =  0.9128
    D(   74) --> V(    1) amplitude = -0.1366
    D(   74) --> V(    7) amplitude =  0.0723

 Excited state   8: excitation energy (eV) =       3.8350
 Total energy for state   8:                 -1028.76823004 au
    Multiplicity: Triplet
    Trans. Mom.:  0.0000 X   0.0000 Y   0.0000 Z
    Strength   :     0.0000000000
    D(   69) --> V(    1) amplitude =  0.2338
    D(   70) --> V(    1) amplitude =  0.7003
    D(   70) --> V(    2) amplitude =  0.1379
    D(   70) --> V(    4) amplitude =  0.1651
    D(   72) --> V(    1) amplitude = -0.0786
    D(   72) --> V(    4) amplitude = -0.0860
    D(   72) --> V(    7) amplitude =  0.1664
    D(   73) --> V(    2) amplitude =  0.3015
    D(   73) --> V(    4) amplitude = -0.2420
    D(   73) --> V(   11) amplitude = -0.1089
    D(   74) --> V(    2) amplitude =  0.3428
    D(   74) --> V(   11) amplitude = -0.1284

 Excited state   9: excitation energy (eV) =       3.8546
 Total energy for state   9:                 -1028.76750847 au
    Multiplicity: Singlet
    Trans. Mom.: -0.0017 X   0.0020 Y  -0.0138 Z
    Strength   :     0.0000185671
    D(   71) --> V(    1) amplitude =  0.9206
    D(   71) --> V(    2) amplitude =  0.2371
    D(   71) --> V(    4) amplitude = -0.1621
    D(   71) --> V(   11) amplitude =  0.2027
    D(   71) --> V(   17) amplitude =  0.0884

 Excited state  10: excitation energy (eV) =       3.9554
 Total energy for state  10:                 -1028.76380627 au
    Multiplicity: Singlet
    Trans. Mom.: -0.0098 X  -0.1047 Y   0.5240 Z
    Strength   :     0.0276798786
    D(   72) --> V(    1) amplitude =  0.9387
    D(   73) --> V(    1) amplitude =  0.2386
    D(   73) --> V(    2) amplitude = -0.1018
    D(   74) --> V(    2) amplitude = -0.0906
    D(   74) --> V(    4) amplitude = -0.0947

 Excited state  11: excitation energy (eV) =       4.2584
 Total energy for state  11:                 -1028.75266831 au
    Multiplicity: Triplet
    Trans. Mom.:  0.0000 X   0.0000 Y   0.0000 Z
    Strength   :     0.0000000000
    D(   68) --> V(    1) amplitude = -0.1933
    D(   69) --> V(    4) amplitude = -0.0737
    D(   70) --> V(    4) amplitude = -0.1227
    D(   72) --> V(    1) amplitude =  0.2174
    D(   72) --> V(    2) amplitude =  0.1011
    D(   72) --> V(    4) amplitude =  0.1355
    D(   72) --> V(    7) amplitude =  0.1338
    D(   73) --> V(    1) amplitude = -0.1155
    D(   73) --> V(    2) amplitude =  0.1845
    D(   73) --> V(    4) amplitude =  0.2524
    D(   73) --> V(    7) amplitude = -0.3196
    D(   73) --> V(   11) amplitude =  0.0745
    D(   74) --> V(    4) amplitude =  0.5219
    D(   74) --> V(    7) amplitude =  0.5366
    D(   74) --> V(    8) amplitude =  0.0742
    D(   74) --> V(   19) amplitude =  0.0711

 Excited state  12: excitation energy (eV) =       4.5298
 Total energy for state  12:                 -1028.74269469 au
    Multiplicity: Singlet
    Trans. Mom.:  0.0045 X   0.2577 Y  -0.0867 Z
    Strength   :     0.0082089093
    D(   70) --> V(    1) amplitude =  0.4933
    D(   70) --> V(    4) amplitude =  0.0805
    D(   73) --> V(    1) amplitude =  0.1843
    D(   73) --> V(    2) amplitude =  0.1948
    D(   73) --> V(   11) amplitude = -0.0871
    D(   74) --> V(    2) amplitude =  0.7785
    D(   74) --> V(    4) amplitude =  0.1448

 Excited state  13: excitation energy (eV) =       4.7828
 Total energy for state  13:                 -1028.73339673 au
    Multiplicity: Singlet
    Trans. Mom.: -0.0273 X  -0.8168 Y   1.0651 Z
    Strength   :     0.2111963548
    D(   70) --> V(    1) amplitude =  0.6003
    D(   70) --> V(    2) amplitude = -0.1404
    D(   72) --> V(    2) amplitude =  0.1423
    D(   72) --> V(    7) amplitude = -0.1122
    D(   73) --> V(    1) amplitude =  0.1116
    D(   73) --> V(    2) amplitude =  0.3705
    D(   73) --> V(    4) amplitude =  0.1314
    D(   74) --> V(    2) amplitude = -0.5622
    D(   74) --> V(    4) amplitude =  0.1462
    D(   74) --> V(    7) amplitude = -0.1497

 Excited state  14: excitation energy (eV) =       5.0359
 Total energy for state  14:                 -1028.72409753 au
    Multiplicity: Singlet
    Trans. Mom.:  0.0037 X   0.1491 Y   0.0431 Z
    Strength   :     0.0029717897
    D(   69) --> V(    1) amplitude =  0.1178
    D(   70) --> V(    1) amplitude =  0.2762
    D(   70) --> V(    2) amplitude =  0.0862
    D(   70) --> V(    4) amplitude = -0.0757
    D(   70) --> V(    7) amplitude =  0.1156
    D(   72) --> V(    1) amplitude = -0.1401
    D(   72) --> V(   11) amplitude =  0.1196
    D(   73) --> V(    2) amplitude = -0.2607
    D(   73) --> V(    7) amplitude =  0.1585
    D(   74) --> V(    4) amplitude = -0.7153
    D(   74) --> V(    7) amplitude = -0.4512
 
 ---------------------------------------------------

 Direct TDDFT calculation will be performed
 Exchange:     0.1900 Hartree-Fock + 0.3500 B88 + 0.4600 muB88 + LR-HF
 Correlation:  0.1900 VWN5 + 0.8100 LYP
 Using SG-1 standard quadrature grid
 ---------------------------------------------------
 Iter    Rts Conv    Rts Left    Ttl Dev     Max Dev
 ---------------------------------------------------
   1         0           7      0.001083    0.000182
   2         0           7      0.000333    0.000069
   3         0           7      0.000185    0.000058
   4         0           7      0.000138    0.000067
   5         0           7      0.000116    0.000070
   6         2           5      0.000065    0.000041
   7         3           4      0.000043    0.000029
   8         4           3      0.000018    0.000013
   9         4           3      0.000017    0.000012
  10         6           1      0.000009    0.000006
  11         6           1      0.000007    0.000005
  12         6           1      0.000004    0.000002
  13         6           1      0.000004    0.000001
  14         7           0      0.000003    0.000001    Roots Converged
 ---------------------------------------------------
 Triplets done: starting singlet calculation
 ---------------------------------------------------
 Iter    Rts Conv    Rts Left    Ttl Dev     Max Dev
 ---------------------------------------------------
  15         0           7      0.001370    0.000261
  16         0           7      0.000423    0.000102
  17         0           7      0.000218    0.000062
  18         0           7      0.000135    0.000040
  19         1           6      0.000082    0.000025
  20         1           6      0.000047    0.000019
  21         1           6      0.000027    0.000010
  22         2           5      0.000023    0.000010
  23         5           2      0.000009    0.000003
  24         5           2      0.000008    0.000003
  25         5           2      0.000006    0.000001
  26         7           0      0.000004    0.000001    Roots Converged
 ---------------------------------------------------
 
 ---------------------------------------------------
             TDDFT Excitation Energies              
 ---------------------------------------------------

[...]
      XZZZ      78.0978   YZZZ     637.5176   ZZZZ   -9017.1663
    5th-Order Moments (Debye-Ang^4)
       500       0.1044    410      -8.2941    320      -8.4423
       230      -9.7245    140       1.8600    050    1130.4454
       401     -14.0638    311     -14.8518    221     201.2406
       131     -11.4694    041    1368.1745    302      56.5271
       212     528.4797    122      34.6252    032    1459.3991
       203    -638.0942    113     -52.1190    023   -1687.6985
       104     571.8641    014    4336.3982    005  -42564.6690
 -----------------------------------------------------------------
 -----------------------------------------------------------------
                 RPA Excited-State Multipoles, State    4   
                  LMN = < X^L Y^M Z^N >
 -----------------------------------------------------------------
    Charge (ESU x 10^10)
                -0.0000
    Dipole Moment (Debye)
         X       0.2702      Y       1.8903      Z     -19.4251
       Tot      19.5187
    Quadrupole Moments (Debye-Ang)
        XX    -124.5693     XY       0.3032     YY     -97.4547
        XZ       0.7578     YZ       9.8162     ZZ    -153.1612
    Octopole Moments (Debye-Ang^2)
       XXX      -0.2487    XXY      -4.4837    XYY       0.8862
       YYY      36.9074    XXZ       0.9594    XYZ      -0.7236
       YYZ      -4.1137    XZZ      12.4701    YZZ      49.3312
       ZZZ    -953.6464
    Hexadecapole Moments (Debye-Ang^3)
      XXXX    -135.4493   XXXY     -14.6424   XXYY    -371.1317
      XYYY      -5.7538   YYYY   -1614.3535   XXXZ      50.2765
      XXYZ     -27.4083   XYYZ      13.5123   YYYZ    -160.1870
      XXZZ   -1413.4169   XYZZ     -12.0245   YYZZ   -1525.6555
      XZZZ      83.3802   YZZZ     660.8832   ZZZZ   -9368.7697
    5th-Order Moments (Debye-Ang^4)
       500      -0.1213    410      -6.8514    320      -8.7214
       230      -7.6088    140      -0.1595    050    1091.8131
       401      -8.6475    311     -14.9501    221     209.7374
       131     -10.9311    041    1456.0546    302      56.5280
       212     540.9844    122      31.5006    032    1501.6562
       203    -616.8554    113     -52.1798    023   -1410.9686
       104     599.6781    014    4716.8431    005  -44064.9851
 -----------------------------------------------------------------
 -----------------------------------------------------------------
                 RPA Excited-State Multipoles, State    5   
                  LMN = < X^L Y^M Z^N >
 -----------------------------------------------------------------
    Charge (ESU x 10^10)
                -0.0000
    Dipole Moment (Debye)
         X       0.1426      Y       1.1828      Z     -10.8638
       Tot      10.9289
    Quadrupole Moments (Debye-Ang)
        XX    -126.6644     XY       0.3557     YY    -101.2573
        XZ      -0.2974     YZ       3.5619     ZZ     -83.6451
    Octopole Moments (Debye-Ang^2)
       XXX      -0.0492    XXY      -4.7462    XYY       1.0287
       YYY      38.5613    XXZ      -4.6271    XYZ      -0.3026
       YYZ     -12.4543    XZZ       5.1805    YZZ      13.0316
       ZZZ    -457.8000
    Hexadecapole Moments (Debye-Ang^3)
      XXXX    -139.3815   XXXY     -14.7033   XXYY    -375.1428
      XYYY      -5.9093   YYYY   -1633.9782   XXXZ      50.7540
      XXYZ     -29.6274   XYYZ      13.7077   YYYZ    -158.2024
      XXZZ   -1430.1296   XYZZ      -9.2044   YYZZ   -1537.0506
      XZZZ      37.7204   YZZZ     448.6210   ZZZZ   -6218.4035
    5th-Order Moments (Debye-Ang^4)
       500       0.5177    410      -7.8032    320      -8.3110
       230      -8.9913    140       1.2983    050    1118.7871
       401     -20.1077    311     -15.0363    221     197.8171
       131     -11.4156    041    1389.4618    302      56.9077
       212     531.1720    122      30.0646    032    1495.6952
       203    -646.7837    113     -34.3740    023   -1309.5603
       104     315.9718    014    3506.5690    005  -24113.8790
 -----------------------------------------------------------------
 -----------------------------------------------------------------
                 RPA Excited-State Multipoles, State    6   
                  LMN = < X^L Y^M Z^N >
 -----------------------------------------------------------------
    Charge (ESU x 10^10)
                -0.0000
    Dipole Moment (Debye)
         X       0.3752      Y       3.7821      Z     -25.2431
       Tot      25.5276
    Quadrupole Moments (Debye-Ang)
        XX    -124.7878     XY       0.3174     YY     -96.6556
        XZ       0.8073     YZ       9.5108     ZZ    -158.1230
    Octopole Moments (Debye-Ang^2)
       XXX      -0.0751    XXY      -3.6228    XYY       1.3465
       YYY      46.8744    XXZ      -2.4889    XYZ      -1.0016
       YYZ     -28.8608    XZZ      12.6772    YZZ      43.9073
       ZZZ    -986.6516
    Hexadecapole Moments (Debye-Ang^3)
      XXXX    -136.1200   XXXY     -14.5781   XXYY    -371.1518
      XYYY      -5.7354   YYYY   -1595.8993   XXXZ      50.4420
      XXYZ     -29.0489   XYYZ      14.3295   YYYZ    -140.2676
      XXZZ   -1420.5453   XYZZ     -12.3746   YYZZ   -1558.3634
      XZZZ      81.1888   YZZZ     641.6296   ZZZZ   -9262.0400
    5th-Order Moments (Debye-Ang^4)
       500       0.2579    410      -5.7170    320      -8.0691
       230      -2.9148    140       2.6677    050    1171.9765
       401     -13.1809    311     -15.2046    221     197.7277
       131     -12.6173    041    1321.5235    302      56.6611
       212     533.9006    122      36.3541    032    1509.3527
       203    -633.3261    113     -55.6161    023   -1778.2623
       104     584.5893    014    4509.7132    005  -43286.8880
 -----------------------------------------------------------------
 -----------------------------------------------------------------
                 RPA Excited-State Multipoles, State    7   
                  LMN = < X^L Y^M Z^N >
 -----------------------------------------------------------------
    Charge (ESU x 10^10)
                -0.0000
    Dipole Moment (Debye)
         X       0.3922      Y       1.4824      Z     -29.5018
       Tot      29.5417
    Quadrupole Moments (Debye-Ang)
        XX    -124.6912     XY       0.1989     YY    -101.0591
        XZ       0.7662     YZ      12.9230     ZZ    -149.5034
    Octopole Moments (Debye-Ang^2)
       XXX      -0.0457    XXY      -5.2732    XYY       1.2508
       YYY      41.1863    XXZ      -5.3735    XYZ      -0.9557
       YYZ     -24.8440    XZZ      13.6128    YZZ      47.1661
       ZZZ   -1065.9601
    Hexadecapole Moments (Debye-Ang^3)
      XXXX    -135.8694   XXXY     -14.8076   XXYY    -373.4567
      XYYY      -6.1920   YYYY   -1635.3190   XXXZ      50.2882
      XXYZ     -26.1678   XYYZ      14.4910   YYYZ    -146.5220
      XXZZ   -1412.1105   XYZZ     -12.9813   YYZZ   -1585.6916
      XZZZ      78.9140   YZZZ     651.5221   ZZZZ   -9016.6668
    5th-Order Moments (Debye-Ang^4)
       500       0.3036    410      -9.1765    320      -8.3288
       230      -9.1953    140       1.8254    050    1138.2498
       401     -18.2964    311     -14.9693    221     199.5984
       131     -13.1232    041    1374.0141    302      58.4451
       212     530.8738    122      37.1126    032    1600.6354
       203    -690.6208    113     -55.9424    023   -1719.0574
       104     606.1983    014    4658.0057    005  -45129.1680
 -----------------------------------------------------------------
 -----------------------------------------------------------------
                 RPA Excited-State Multipoles, State    8   
                  LMN = < X^L Y^M Z^N >
 -----------------------------------------------------------------
    Charge (ESU x 10^10)
                -0.0000
    Dipole Moment (Debye)
         X       0.3547      Y      -0.9160      Z     -29.7517
       Tot      29.7679
    Quadrupole Moments (Debye-Ang)
        XX    -124.9961     XY       0.3284     YY     -95.8031
        XZ       0.7505     YZ       9.3648     ZZ    -153.9717
    Octopole Moments (Debye-Ang^2)
       XXX      -0.1368    XXY      -6.9400    XYY       1.1297
       YYY      28.7730    XXZ      -5.1364    XYZ      -0.6729
       YYZ     -26.5302    XZZ      13.6513    YZZ      23.5110
       ZZZ   -1098.0833
    Hexadecapole Moments (Debye-Ang^3)
      XXXX    -136.9175   XXXY     -14.6841   XXYY    -372.0652
      XYYY      -5.6692   YYYY   -1595.2222   XXXZ      50.4310
      XXYZ     -27.4916   XYYZ      13.8018   YYYZ    -141.0249
      XXZZ   -1418.6252   XYZZ     -11.1623   YYZZ   -1524.2666
      XZZZ      81.5062   YZZZ     583.3061   ZZZZ   -9334.5611
    5th-Order Moments (Debye-Ang^4)
       500       0.0329    410     -12.5135    320      -8.6228
       230     -19.2055    140       1.4625    050    1069.7592
       401     -18.2963    311     -14.5776    221     197.7236
       131     -10.6103    041    1367.2835    302      58.2976
       212     518.5747    122      34.9690    032    1407.2240
       203    -701.5899    113     -54.0888    023   -1772.0835
       104     619.5833    014    4457.3389    005  -46442.9069
 -----------------------------------------------------------------
 -----------------------------------------------------------------
                 RPA Excited-State Multipoles, State    9   
                  LMN = < X^L Y^M Z^N >
 -----------------------------------------------------------------
    Charge (ESU x 10^10)
                -0.0000
    Dipole Moment (Debye)
         X       0.1319      Y       1.0321      Z      -9.9310
       Tot       9.9854
    Quadrupole Moments (Debye-Ang)
        XX    -126.7182     XY       0.3537     YY    -101.4838
        XZ      -0.3168     YZ       3.6359     ZZ     -80.8976
    Octopole Moments (Debye-Ang^2)
       XXX      -0.0612    XXY      -4.8390    XYY       1.0114
       YYY      38.2095    XXZ      -4.3650    XYZ      -0.2746
       YYZ     -11.4159    XZZ       5.0205    YZZ      12.6911
       ZZZ    -440.0407
    Hexadecapole Moments (Debye-Ang^3)
      XXXX    -139.6268   XXXY     -14.7226   XXYY    -375.4139
      XYYY      -5.9233   YYYY   -1635.1045   XXXZ      50.7786
      XXYZ     -29.3931   XYYZ      13.7023   YYYZ    -156.8978
      XXZZ   -1430.3667   XYZZ      -9.1257   YYZZ   -1537.8312
      XZZZ      37.1262   YZZZ     447.5573   ZZZZ   -6152.2505
    5th-Order Moments (Debye-Ang^4)
       500       0.5360    410      -7.9200    320      -8.3406
       230      -9.3905    140       1.2021    050    1117.2552
       401     -20.4860    311     -15.0401    221     198.2613
       131     -11.3793    041    1395.0627    302      56.9888
       212     531.7719    122      29.8376    032    1498.5562
       203    -647.7674    113     -33.8040    023   -1301.2908
       104     312.3105    014    3505.1020    005  -23742.0950
 -----------------------------------------------------------------
 -----------------------------------------------------------------
                 RPA Excited-State Multipoles, State   10   
                  LMN = < X^L Y^M Z^N >
 -----------------------------------------------------------------
    Charge (ESU x 10^10)
                -0.0000
    Dipole Moment (Debye)
         X       0.2614      Y       0.5916      Z     -20.8438
       Tot      20.8538
    Quadrupole Moments (Debye-Ang)
        XX    -124.7140     XY       0.2759     YY     -97.7216
        XZ       0.7453     YZ      11.6551     ZZ    -151.0107
    Octopole Moments (Debye-Ang^2)
       XXX      -0.2647    XXY      -5.4409    XYY       0.8146
       YYY      32.2930    XXZ       0.0313    XYZ      -0.6916
       YYZ      -1.9525    XZZ      13.0045    YZZ      50.2973
       ZZZ   -1003.4934
    Hexadecapole Moments (Debye-Ang^3)
      XXXX    -136.0684   XXXY     -14.7388   XXYY    -371.8565
      XYYY      -5.8977   YYYY   -1619.7455   XXXZ      50.3596
      XXYZ     -25.4838   XYYZ      13.4791   YYYZ    -153.8764
      XXZZ   -1413.4912   XYZZ     -12.0250   YYZZ   -1518.2454
      XZZZ      83.9067   YZZZ     670.3149   ZZZZ   -9410.6448
    5th-Order Moments (Debye-Ang^4)
       500      -0.1796    410      -8.8366    320      -8.9464
       230     -12.2384    140      -0.5004    050    1064.5668
       401     -10.4072    311     -14.7985    221     211.4473
       131     -10.7939    041    1474.4025    302      57.4692
       212     540.0631    122      31.7572    032    1505.3772
       203    -645.1425    113     -53.5164    023   -1413.4259
       104     618.0875    014    4846.3223    005  -45581.7242
 -----------------------------------------------------------------
 -----------------------------------------------------------------
                 RPA Excited-State Multipoles, State   11   
                  LMN = < X^L Y^M Z^N >
 -----------------------------------------------------------------
    Charge (ESU x 10^10)
                -0.0000
    Dipole Moment (Debye)
         X       0.3925      Y       3.3465      Z     -27.3347
       Tot      27.5416
    Quadrupole Moments (Debye-Ang)
        XX    -124.8664     XY       0.3149     YY     -97.9464
        XZ       0.7603     YZ       8.0530     ZZ    -155.7143
    Octopole Moments (Debye-Ang^2)
       XXX      -0.0439    XXY      -3.9193    XYY       1.3443
       YYY      45.1947    XXZ      -3.7990    XYZ      -1.0259
       YYZ     -30.4019    XZZ      13.2116    YZZ      45.5186
       ZZZ   -1032.5790
    Hexadecapole Moments (Debye-Ang^3)
      XXXX    -136.5658   XXXY     -14.5819   XXYY    -372.3358
      XYYY      -5.8415   YYYY   -1612.2241   XXXZ      50.3328
      XXYZ     -30.3135   XYYZ      14.3597   YYYZ    -148.3664
      XXZZ   -1419.0817   XYZZ     -12.2093   YYZZ   -1567.5876
      XZZZ      80.2407   YZZZ     611.0370   ZZZZ   -9209.4993
    5th-Order Moments (Debye-Ang^4)
       500       0.3438    410      -6.0698    320      -8.0788
       230      -3.4289    140       2.3637    050    1157.4764
       401     -15.2167    311     -15.1866    221     197.3580
       131     -12.8311    041    1326.9513    302      57.5383
       212     533.7730    122      37.0017    032    1534.7527
       203    -660.2264    113     -56.3306    023   -1800.7629
       104     596.3251    014    4571.3650    005  -44299.0320
 -----------------------------------------------------------------
 -----------------------------------------------------------------
                 RPA Excited-State Multipoles, State   12   
                  LMN = < X^L Y^M Z^N >
 -----------------------------------------------------------------
    Charge (ESU x 10^10)
                -0.0000
    Dipole Moment (Debye)
         X       0.2840      Y       3.7064      Z     -18.3125
       Tot      18.6860
    Quadrupole Moments (Debye-Ang)
        XX    -125.0105     XY       0.3091     YY     -99.3037
        XZ       0.6304     YZ       7.2316     ZZ    -147.3537
    Octopole Moments (Debye-Ang^2)
       XXX      -0.2441    XXY      -3.6828    XYY       1.1472
       YYY      43.0337    XXZ       1.8383    XYZ      -0.9454
       YYZ     -18.3730    XZZ      11.2809    YZZ      47.3802
       ZZZ    -865.6912
    Hexadecapole Moments (Debye-Ang^3)
      XXXX    -136.9306   XXXY     -14.6197   XXYY    -373.2532
      XYYY      -5.8308   YYYY   -1618.0387   XXXZ      50.2803
      XXYZ     -30.1613   XYYZ      14.1537   YYYZ    -152.6225
      XXZZ   -1418.0060   XYZZ     -11.8186   YYZZ   -1559.7563
      XZZZ      75.8987   YZZZ     593.6231   ZZZZ   -8908.6648
    5th-Order Moments (Debye-Ang^4)
       500      -0.3063    410      -6.3269    320      -8.4728
       230      -5.2402    140       1.4603    050    1125.4835
       401      -4.9983    311     -15.1004    221     205.7535
       131     -12.5133    041    1366.5415    302      54.2762
       212     537.6231    122      34.6347    032    1524.7069
       203    -560.6590    113     -53.8944    023   -1620.1273
       104     548.2257    014    4500.1922    005  -40212.7716
 -----------------------------------------------------------------
 -----------------------------------------------------------------
                 RPA Excited-State Multipoles, State   13   
                  LMN = < X^L Y^M Z^N >
 -----------------------------------------------------------------
    Charge (ESU x 10^10)
                -0.0000
    Dipole Moment (Debye)
         X       0.3472      Y       1.5250      Z     -26.0514
       Tot      26.0983
    Quadrupole Moments (Debye-Ang)
        XX    -124.9448     XY       0.1871     YY    -102.0566
        XZ       0.6828     YZ      13.2539     ZZ    -142.7986
    Octopole Moments (Debye-Ang^2)
       XXX      -0.1117    XXY      -5.1073    XYY       1.1259
       YYY      37.2156    XXZ      -3.5452    XYZ      -0.8434
       YYZ     -20.8132    XZZ      12.9837    YZZ      40.8681
       ZZZ   -1021.1568
    Hexadecapole Moments (Debye-Ang^3)
      XXXX    -137.0196   XXXY     -14.8590   XXYY    -374.7997
      XYYY      -6.2151   YYYY   -1637.7115   XXXZ      50.3216
      XXYZ     -25.7577   XYYZ      14.3407   YYYZ    -141.5572
      XXZZ   -1412.8738   XYZZ     -13.0364   YYZZ   -1571.9249
      XZZZ      77.0411   YZZZ     680.1965   ZZZZ   -8845.4580
    5th-Order Moments (Debye-Ang^4)
       500       0.2278    410      -8.7282    320      -8.5213
       230     -10.4363    140       1.2246    050    1096.2368
       401     -16.9266    311     -14.8825    221     202.2692
       131     -12.5440    041    1373.9018    302      58.1050
       212     531.0753    122      35.9122    032    1543.2315
       203    -680.5685    113     -53.1902    023   -1692.9817
       104     591.9057    014    4465.5428    005  -44215.5227
 -----------------------------------------------------------------
 -----------------------------------------------------------------
                 RPA Excited-State Multipoles, State   14   
                  LMN = < X^L Y^M Z^N >
 -----------------------------------------------------------------
    Charge (ESU x 10^10)
                -0.0000
    Dipole Moment (Debye)
         X       0.3703      Y       3.8652      Z     -25.0671
       Tot      25.3661
    Quadrupole Moments (Debye-Ang)
        XX    -126.2532     XY       0.3441     YY    -100.7302
        XZ       0.6580     YZ       5.0392     ZZ    -156.0869
    Octopole Moments (Debye-Ang^2)
       XXX       0.0753    XXY      -2.5923    XYY       1.3444
       YYY      46.8349    XXZ      -6.0187    XYZ      -0.7509
       YYZ     -34.5623    XZZ      11.3510    YZZ      23.5323
       ZZZ    -927.9360
    Hexadecapole Moments (Debye-Ang^3)
      XXXX    -144.7172   XXXY     -14.6451   XXYY    -378.5929
      XYYY      -5.4562   YYYY   -1626.8229   XXXZ      50.7325
      XXYZ     -31.5608   XYYZ      14.4174   YYYZ    -161.1356
      XXZZ   -1437.6311   XYZZ     -11.4382   YYZZ   -1604.2419
      XZZZ      73.8008   YZZZ     540.9036   ZZZZ   -8937.7535
    5th-Order Moments (Debye-Ang^4)
       500       1.7280    410       1.0280    320      -7.5730
       230       3.6849    140       2.0314    050    1171.8684
       401     -32.9930    311     -15.1321    221     182.2543
       131     -11.3639    041    1299.7686    302      57.5508
       212     525.8512    122      35.8731    032    1481.2034
       203    -698.2816    113     -47.7991    023   -1836.8732
       104     533.5516    014    3916.3965    005  -40728.6556
 -----------------------------------------------------------------
 Total job time:  3926.99s(wall), 53643.43s(cpu) 
 Fri Jan 31 03:20:18 2025

        *************************************************************
        *                                                           *
        *  Thank you very much for using Q-Chem.  Have a nice day.  *
        *                                                           *
        *************************************************************


