
Running Job 1 of 1 Cyanidin_Q4_tddft_full.in
qchem Cyanidin_Q4_tddft_full.in_1889803.0 /data/brussel/103/vsc10365/activedata/TDDFTAnthocyanidines/qchem1889803/ 1
/apps/brussel/RL8/skylake/software/Q-Chem/6.2.0/exe/qcprog.exe_s Cyanidin_Q4_tddft_full.in_1889803.0 /data/brussel/103/vsc10365/activedata/TDDFTAnthocyanidines/qchem1889803/
                  Welcome to Q-Chem
     A Quantum Leap Into The Future Of Chemistry


 Q-Chem 6.2, Q-Chem, Inc., Pleasanton, CA (2024)

 License issued to: SRG Prof. Dr. Frank De Proft, Vrije Universiteit Brussel

 E. Epifanovsky,  A. T. B. Gilbert,  Xintian Feng,  Joonho Lee,  Yuezhi Mao,  
 N. Mardirossian,  P. Pokhilko,  A. White,  M. Wormit,  M. P. Coons,  
 A. L. Dempwolff,  Zhengting Gan,  D. Hait,  P. R. Horn,  L. D. Jacobson,  
 I. Kaliman,  J. Kussmann,  A. W. Lange,  Ka Un Lao,  D. S. Levine,  Jie Liu,  
 S. C. McKenzie,  A. F. Morrison,  K. D. Nanda,  F. Plasser,  D. R. Rehn,  
 M. L. Vidal,  Zhi-Qiang You,  Ying Zhu,  Huseyin Aksu,  B. Alam,  
 B. Albrecht,  A. Aldossary,  E. Alguire,  J. H. Andersen,  
 J. E. Arias-Martinez,  V. Athavale,  D. Barton,  K. Begam,  A. Behn,  
 N. Bellonzi,  Y. A. Bernard,  E. J. Berquist,  H. Burton,  A. Carreras,  
 K. Carter-Fenk,  Mathew Chow,  Romit Chakraborty,  Chandrima Chakravarty,  
 Junhan Chen,  A. D. Chien,  K. D. Closser,  V. Cofer-Shabica,  L. Cunha,  
 S. Dasgupta,  Jia Deng,  Joseph Dickinson,  M. de Wergifosse,  
 M. Diedenhofen,  Hainam Do,  Wenjie Dou,  S. Ehlert,  Po-Tung Fang,  
 S. Fatehi,  Qingguo Feng,  Jonathan Fetherolf,  T. Friedhoff,  
 Thomas Froitzheim,  Sarai Folkestad,  B. Ganoe,  J. Gayvert,  Qinghui Ge,  
 G. Gidofalvi,  M. Gimferrer,  M. Goldey,  Montgomery Gray,  J. Gomes,  
 C. Gonzalez-Espinoza,  S. Gulania,  A. Gunina,  J. A. Gyamfi,  
 M. W. D. Hanson-Heine,  P. H. P. Harbach,  A. W. Hauser,  M. F. Herbst,  
 M. Hernandez Vera,  M. Hodecker,  Z. C. Holden,  S. Houck,  Xunkun Huang,  
 Kerwin Hui,  B. C. Huynh,  K. Ikeda,  M. Ivanov,  Nayanthara K. Jayadev,  
 Hyunjun Ji,  Zuxin Jin,  Hanjie Jiang,  Subrata Jana,  B. Kaduk,  
 S. Kaehler,  R. Kang,  K. Khistyaev,  Jaehoon Kim,  Yongbin Kim,  
 P. Klunzinger,  Z. Koczor-Benda,  Joong Hoon Koh,  D. Kosenkov,  
 Saikiran Kotaru,  L. Koulias,  T. Kowalczyk,  C. M. Krauter,  K. Kue,  
 A. Kunitsa,  T. Kus,  A. Landau,  K. V. Lawler,  D. Lefrancois,  S. Lehtola,  
 Rain Li,  Shaozhi Li,  Tao E. Li,  Yi-Pei Li,  Jiashu Liang,  M. Liebenthal,  
 Hung-Hsuan Lin,  You-Sheng Lin,  Fenglai Liu,  Kuan-Yu Liu,  Xiao Liu,  
 M. Loipersberger,  A. Luenser,  C. Malbon,  Aniket Mandal,  Manisha,  
 A. Manjanath,  P. Manohar,  E. Mansoor,  S. F. Manzer,  Shan-Ping Mao,  
 A. V. Marenich,  T. Markovich,  S. Mason,  F. Matz,  S. A. Maurer,  
 Samuel May,  Alexandra McIsaac,  P. F. McLaughlin,  M. F. S. J. Menger,  
 J.-M. Mewes,  S. A. Mewes,  P. Morgante,  Mohammad Mostafanejad,  
 Madhubani Mukherjee,  J. W. Mullinax,  Quyen Nguyen,  Avik Kumar Ojha,  
 K. J. Oosterbaan,  Eno Paenurk,  Xiaoliang Pan,  G. Paran,  V. Parravicini,  
 Alexander C. Paul,  Suranjan K. Paul,  F. Pavosevic,  Zheng Pei,  S. Prager,  
 E. I. Proynov,  E. Ramos,  B. Rana,  A. E. Rask,  A. Rettig,  R. M. Richard,  
 F. Rob,  E. Rossomme,  T. Scheele,  M. Scheurer,  M. Schneider,  
 P. E. Schneider,  Tim K. Schramm,  N. Sergueev,  S. M. Sharada,  
 Hengyuan Shen,  W. Skomorowski,  D. W. Small,  C. J. Stein,  
 Alistair J. Sterling,  Yingli Su,  Yu-Chuan Su,  E. J. Sundstrom,  
 J. Talbot,  Zhen Tao,  J. Thirman,  Hung-Yi Tsai,  T. Tsuchimochi,  
 N. M. Tubman,  C. Utku,  S. P. Veccham,  O. Vydrov,  Rahel Weiss,  
 J. Wenzel,  Jonathan Wong,  J. Witte,  H. Wu,  Yanze Wu,  A. Yamada,  
 Chou-Hsun Yang,  Kun Yao,  S. Yeganeh,  S. R. Yost,  Qi Yu,  A. Zech,  
 F. Zeller,  Chongxiao Zhao,  Igor Ying Zhang,  Xing Zhang,  Yu Zhang,  
 D. Zuev,  A. Aspuru-Guzik,  A. T. Bell,  N. A. Besley,  K. B. Bravaya,  
 B. R. Brooks,  D. Casanova,  Jeng-Da Chai,  Hsing-Ta Chen,  S. Coriani,  
 C. J. Cramer,  A. E. DePrince, III,  R. A. DiStasio Jr.,  A. Dreuw,  
 B. D. Dunietz,  T. R. Furlani,  W. A. Goddard III,  S. Grimme,  
 S. Hammes-Schiffer,  T. Head-Gordon,  W. J. Hehre,  Chao-Ping Hsu,  
 T.-C. Jagau,  Yousung Jung,  A. Klamt,  Jing Kong,  D. S. Lambrecht,  
 Xiangyuan Li,  WanZhen Liang,  N. J. Mayhall,  C. W. McCurdy,  J. B. Neaton,  
 T. Neudecker,  C. Ochsenfeld,  J. A. Parkhill,  R. Peverati,  
 V. A. Rassolov,  Haisheng Ren,  Yihan Shao,  L. V. Slipchenko,  
 R. P. Steele,  J. E. Subotnik,  A. J. W. Thom,  A. Tkatchenko,  
 D. G. Truhlar,  T. Van Voorhis,  Fan Wang,  T. A. Wesolowski,  K. B. Whaley,  
 H. L. Woodcock III,  P. M. Zimmerman,  S. Faraji,  P. M. W. Gill,  
 M. Head-Gordon,  J. M. Herbert,  A. I. Krylov

 Contributors to earlier versions of Q-Chem not listed above: 
 R. D. Adamson,  B. Austin,  R. Baer,  J. Baker,  G. J. O. Beran,  
 K. Brandhorst,  S. T. Brown,  E. F. C. Byrd,  Arup K. Chakraborty,  
 G. K. L. Chan,  Chun-Min Chang,  Yunqing Chen,  C.-L. Cheng,  
 Siu Hung Chien,  D. M. Chipman,  D. L. Crittenden,  H. Dachsel,  
 R. J. Doerksen,  A. D. Dutoi,  R. G. Edgar,  J. Fosso-Tande,  
 L. Fusti-Molnar,  D. Ghosh,  A. Ghysels,  A. Golubeva-Zadorozhnaya,  
 J. Gonthier,  M. S. Gordon,  S. R. Gwaltney,  G. Hawkins,  J. E. Herr,  
 A. Heyden,  S. Hirata,  E. G. Hohenstein,  G. Kedziora,  F. J. Keil,  
 C. Kelley,  Jihan Kim,  R. A. King,  R. Z. Khaliullin,  P. P. Korambath,  
 W. Kurlancheek,  A. Laurent,  A. M. Lee,  M. S. Lee,  S. V. Levchenko,  
 Ching Yeh Lin,  D. Liotard,  E. Livshits,  R. C. Lochan,  I. Lotan,  
 L. A. Martinez-Martinez,  P. E. Maslen,  N. Nair,  D. P. O'Neill,  
 D. Neuhauser,  E. Neuscamman,  C. M. Oana,  R. Olivares-Amaya,  R. Olson,  
 T. M. Perrine,  B. Peters,  P. A. Pieniazek,  A. Prociuk,  Y. M. Rhee,  
 J. Ritchie,  M. A. Rohrdanz,  E. Rosta,  N. J. Russ,  H. F. Schaefer III,  
 M. W. Schmidt,  N. E. Schultz,  S. Sharma,  N. Shenvi,  C. D. Sherrill,  
 A. C. Simmonett,  A. Sodt,  T. Stein,  D. Stuck,  K. S. Thanthiriwatte,  
 V. Vanovschi,  L. Vogt,  Tao Wang,  A. Warshel,  M. A. Watson,  
 C. F. Williams,  Q. Wu,  X. Xu,  Jun Yang,  W. Zhang,  Yan Zhao

   Please cite Q-Chem as follows:
  "Software for the frontiers of quantum chemistry:
   An overview of developments in the Q-Chem 5 package"
   J. Chem. Phys. 155, 084801 (2021)
   https://doi.org/10.1063/5.0055522 (open access)

 Q-Chem 6.2.0 for Intel X86 EM64T Linux

 Parts of Q-Chem use Armadillo 9.900.5 (Nocturnal Misbehaviour).
 http://arma.sourceforge.net/

 Q-Chem begins on Fri Jan 31 02:31:24 2025  

 Host: 
0

     Scratch files written to /data/brussel/103/vsc10365/activedata/TDDFTAnthocyanidines/qchem1889803//
 May224 |scratch|qcdevops|jenkins|workspace|build_RNUM -1
 Processing $rem in /apps/brussel/RL8/skylake/software/Q-Chem/6.2.0/config/preferences:
 Processing $rem in /user/brussel/103/vsc10365/.qchemrc:
 Symmetry turned off for PCM/SM12/SMD calculation

 Checking the input file for inconsistencies... 	...done.

--------------------------------------------------------------
User input:
--------------------------------------------------------------
$comment
TDDFT calculation of cyanidin Q4 structure
nprocs=16
mem=64gb
$end

$molecule
0 1
C    0.2154618   -1.8271670   -3.7491663
C    0.1231405   -0.5851358   -4.4870701
C    0.0232826    0.6191165   -3.8630089
C    0.0021829    0.7020576   -2.4304630
C    0.0953330   -0.5305344   -1.7164589
C    0.1957254   -1.7508122   -2.3212546
C   -0.1049545    1.8697679   -1.7115062
C   -0.1135165    1.8656261   -0.3105714
C   -0.0054080    0.6651104    0.3694285
O    0.0927642   -0.4769570   -0.3565341
C    0.0030422    0.4247406    1.8037977
C   -0.2585385   -0.8738554    2.2825460
C   -0.2397029   -1.1434182    3.6347736
C    0.0486237   -0.1241985    4.5543994
C    0.3152577    1.1565551    4.0920198
C    0.2892758    1.4360293    2.7352838
O    0.3130293   -2.9353065   -4.3620384
H    0.1383899   -0.6351007   -5.5696527
O   -0.0621541    1.8072368   -4.5247569
H    0.2679759   -2.6553609   -1.7328737
H   -0.1936183    2.8198468   -2.2240748
O   -0.2511932    3.0305917    0.3907054
H   -0.4884658   -1.6784733    1.5976714
O   -0.4950027   -2.3811222    4.1692043
O    0.0704714   -0.3741857    5.8947840
H    0.5462247    1.9341320    4.8085075
H    0.5127454    2.4363044    2.4049034
H   -0.0322793    1.6518934   -5.4800029
H   -0.3367776    3.7713422   -0.2263064
H   -0.1411976   -1.3071886    6.0516947
H   -0.6741774   -3.0205541    3.4653698
$end

$rem
BASIS  =  def2-ma-TZVP
MEM_STATIC  =  2000
MEM_TOTAL  =  64000
METHOD  =  CAM-B3LYP
SOLVENT_METHOD = pcm
SYMMETRY_IGNORE  =  1
CIS_N_ROOTS = 7
CIS_SINGLETS = true
CIS_TRIPLETS = true
CISTR_PRINT = true
RPA = true
PRINT_ORBITALS = true
SCF_PRINT = 1
SCF_FINAL_PRINT = 2
PRINT_GENERAL_BASIS = true
CISTR_PRINT = true
PRINT_RADII_GYRE = true
MULTIPOLE_ORDER = 5
CIS_AMPL_PRINT = 5
CIS_AMPL_ANAL = true
STATE_ANALYSIS = true
$end

$pcm
Theory   CPCM
Method   SWIG
Solver   Inversion
Radii    Bondi
$end

$solvent
Dielectric         78.39
OpticalDielectric  1.777849
$end


--------------------------------------------------------------
 ----------------------------------------------------------------
             Standard Nuclear Orientation (Angstroms)
    I     Atom           X                Y                Z
 ----------------------------------------------------------------
    1      C       0.2154618000    -1.8271670000    -3.7491663000
    2      C       0.1231405000    -0.5851358000    -4.4870701000
    3      C       0.0232826000     0.6191165000    -3.8630089000
    4      C       0.0021829000     0.7020576000    -2.4304630000
    5      C       0.0953330000    -0.5305344000    -1.7164589000
    6      C       0.1957254000    -1.7508122000    -2.3212546000
    7      C      -0.1049545000     1.8697679000    -1.7115062000
    8      C      -0.1135165000     1.8656261000    -0.3105714000
    9      C      -0.0054080000     0.6651104000     0.3694285000
   10      O       0.0927642000    -0.4769570000    -0.3565341000
   11      C       0.0030422000     0.4247406000     1.8037977000
   12      C      -0.2585385000    -0.8738554000     2.2825460000
   13      C      -0.2397029000    -1.1434182000     3.6347736000
   14      C       0.0486237000    -0.1241985000     4.5543994000
   15      C       0.3152577000     1.1565551000     4.0920198000
   16      C       0.2892758000     1.4360293000     2.7352838000
   17      O       0.3130293000    -2.9353065000    -4.3620384000
   18      H       0.1383899000    -0.6351007000    -5.5696527000
   19      O      -0.0621541000     1.8072368000    -4.5247569000
   20      H       0.2679759000    -2.6553609000    -1.7328737000
   21      H      -0.1936183000     2.8198468000    -2.2240748000
   22      O      -0.2511932000     3.0305917000     0.3907054000
   23      H      -0.4884658000    -1.6784733000     1.5976714000
   24      O      -0.4950027000    -2.3811222000     4.1692043000
   25      O       0.0704714000    -0.3741857000     5.8947840000
   26      H       0.5462247000     1.9341320000     4.8085075000
   27      H       0.5127454000     2.4363044000     2.4049034000
   28      H      -0.0322793000     1.6518934000    -5.4800029000
   29      H      -0.3367776000     3.7713422000    -0.2263064000
   30      H      -0.1411976000    -1.3071886000     6.0516947000
   31      H      -0.6741774000    -3.0205541000     3.4653698000
 ----------------------------------------------------------------
 Nuclear Repulsion Energy =        1563.64581856 hartrees
 There are       74 alpha and       74 beta electrons
 Requested basis set is def2-ma-TZVP
 Basis set in general basis input format:
-----------------------------------------------------------------------
$basis
C    0
S    6    1.000000
   1.35753497E+04    2.22458144E-04 
   2.03523337E+03    1.72327383E-03 
   4.63225624E+02    8.92557153E-03 
   1.31200196E+02    3.57279845E-02 
   4.28530159E+01    1.10762599E-01 
   1.55841858E+01    2.42956276E-01 
S    2    1.000000
   6.20671385E+00    4.14402634E-01 
   2.57648965E+00    2.37449687E-01 
S    1    1.000000
   5.76963394E-01    1.00000000E+00 
S    1    1.000000
   2.29728314E-01    1.00000000E+00 
S    1    1.000000
   9.51644400E-02    1.00000000E+00 
S    1    1.000000
   4.84754014E-02    1.00000000E+00 
P    4    1.000000
   3.46972322E+01    5.33336578E-03 
   7.95826228E+00    3.58641091E-02 
   2.37808269E+00    1.42158733E-01 
   8.14332082E-01    3.42704718E-01 
P    1    1.000000
   2.88875473E-01    4.64458224E-01 
P    1    1.000000
   1.00568237E-01    2.49557899E-01 
D    1    1.000000
   1.09700000E+00    1.00000000E+00 
D    1    1.000000
   3.18000000E-01    1.00000000E+00 
F    1    1.000000
   7.61000000E-01    1.00000000E+00 
****
C    0
S    6    1.000000
   1.35753497E+04    2.22458144E-04 
   2.03523337E+03    1.72327383E-03 
   4.63225624E+02    8.92557153E-03 
   1.31200196E+02    3.57279845E-02 
   4.28530159E+01    1.10762599E-01 
   1.55841858E+01    2.42956276E-01 
S    2    1.000000
   6.20671385E+00    4.14402634E-01 
   2.57648965E+00    2.37449687E-01 
S    1    1.000000
   5.76963394E-01    1.00000000E+00 
S    1    1.000000
   2.29728314E-01    1.00000000E+00 
S    1    1.000000
   9.51644400E-02    1.00000000E+00 
S    1    1.000000
   4.84754014E-02    1.00000000E+00 
P    4    1.000000
   3.46972322E+01    5.33336578E-03 
   7.95826228E+00    3.58641091E-02 
   2.37808269E+00    1.42158733E-01 
   8.14332082E-01    3.42704718E-01 
P    1    1.000000
   2.88875473E-01    4.64458224E-01 
P    1    1.000000
   1.00568237E-01    2.49557899E-01 
D    1    1.000000
   1.09700000E+00    1.00000000E+00 
D    1    1.000000
   3.18000000E-01    1.00000000E+00 
F    1    1.000000
   7.61000000E-01    1.00000000E+00 
****
C    0
S    6    1.000000
   1.35753497E+04    2.22458144E-04 
   2.03523337E+03    1.72327383E-03 
   4.63225624E+02    8.92557153E-03 
   1.31200196E+02    3.57279845E-02 
   4.28530159E+01    1.10762599E-01 
   1.55841858E+01    2.42956276E-01 
S    2    1.000000
   6.20671385E+00    4.14402634E-01 
   2.57648965E+00    2.37449687E-01 
S    1    1.000000
   5.76963394E-01    1.00000000E+00 
S    1    1.000000
   2.29728314E-01    1.00000000E+00 
S    1    1.000000
   9.51644400E-02    1.00000000E+00 
S    1    1.000000
   4.84754014E-02    1.00000000E+00 
P    4    1.000000
   3.46972322E+01    5.33336578E-03 
   7.95826228E+00    3.58641091E-02 
   2.37808269E+00    1.42158733E-01 
   8.14332082E-01    3.42704718E-01 
P    1    1.000000
   2.88875473E-01    4.64458224E-01 
P    1    1.000000
   1.00568237E-01    2.49557899E-01 
D    1    1.000000
   1.09700000E+00    1.00000000E+00 
D    1    1.000000
   3.18000000E-01    1.00000000E+00 
F    1    1.000000
   7.61000000E-01    1.00000000E+00 
****
C    0
S    6    1.000000
   1.35753497E+04    2.22458144E-04 
   2.03523337E+03    1.72327383E-03 
   4.63225624E+02    8.92557153E-03 
   1.31200196E+02    3.57279845E-02 
   4.28530159E+01    1.10762599E-01 
   1.55841858E+01    2.42956276E-01 
S    2    1.000000
   6.20671385E+00    4.14402634E-01 
   2.57648965E+00    2.37449687E-01 
S    1    1.000000
   5.76963394E-01    1.00000000E+00 
S    1    1.000000
   2.29728314E-01    1.00000000E+00 
S    1    1.000000
   9.51644400E-02    1.00000000E+00 
S    1    1.000000
   4.84754014E-02    1.00000000E+00 
P    4    1.000000
   3.46972322E+01    5.33336578E-03 
   7.95826228E+00    3.58641091E-02 
   2.37808269E+00    1.42158733E-01 
   8.14332082E-01    3.42704718E-01 
P    1    1.000000
   2.88875473E-01    4.64458224E-01 
P    1    1.000000
   1.00568237E-01    2.49557899E-01 
D    1    1.000000
   1.09700000E+00    1.00000000E+00 
D    1    1.000000
   3.18000000E-01    1.00000000E+00 
F    1    1.000000
   7.61000000E-01    1.00000000E+00 
****
C    0
S    6    1.000000
   1.35753497E+04    2.22458144E-04 
   2.03523337E+03    1.72327383E-03 
   4.63225624E+02    8.92557153E-03 
   1.31200196E+02    3.57279845E-02 
   4.28530159E+01    1.10762599E-01 
   1.55841858E+01    2.42956276E-01 
S    2    1.000000
   6.20671385E+00    4.14402634E-01 
   2.57648965E+00    2.37449687E-01 
S    1    1.000000
   5.76963394E-01    1.00000000E+00 
S    1    1.000000
   2.29728314E-01    1.00000000E+00 
S    1    1.000000
   9.51644400E-02    1.00000000E+00 
S    1    1.000000
   4.84754014E-02    1.00000000E+00 
P    4    1.000000
   3.46972322E+01    5.33336578E-03 
   7.95826228E+00    3.58641091E-02 
   2.37808269E+00    1.42158733E-01 
   8.14332082E-01    3.42704718E-01 
P    1    1.000000
   2.88875473E-01    4.64458224E-01 
P    1    1.000000
   1.00568237E-01    2.49557899E-01 
D    1    1.000000
   1.09700000E+00    1.00000000E+00 
D    1    1.000000
   3.18000000E-01    1.00000000E+00 
F    1    1.000000
   7.61000000E-01    1.00000000E+00 
****
C    0
S    6    1.000000
   1.35753497E+04    2.22458144E-04 
   2.03523337E+03    1.72327383E-03 
   4.63225624E+02    8.92557153E-03 
   1.31200196E+02    3.57279845E-02 
   4.28530159E+01    1.10762599E-01 
   1.55841858E+01    2.42956276E-01 
S    2    1.000000
   6.20671385E+00    4.14402634E-01 
   2.57648965E+00    2.37449687E-01 
S    1    1.000000
   5.76963394E-01    1.00000000E+00 
S    1    1.000000
   2.29728314E-01    1.00000000E+00 
S    1    1.000000
   9.51644400E-02    1.00000000E+00 
S    1    1.000000
   4.84754014E-02    1.00000000E+00 
P    4    1.000000
   3.46972322E+01    5.33336578E-03 
   7.95826228E+00    3.58641091E-02 
   2.37808269E+00    1.42158733E-01 
   8.14332082E-01    3.42704718E-01 
P    1    1.000000
   2.88875473E-01    4.64458224E-01 
P    1    1.000000
   1.00568237E-01    2.49557899E-01 
D    1    1.000000
   1.09700000E+00    1.00000000E+00 
D    1    1.000000
   3.18000000E-01    1.00000000E+00 
F    1    1.000000
   7.61000000E-01    1.00000000E+00 
****
C    0
S    6    1.000000
   1.35753497E+04    2.22458144E-04 
   2.03523337E+03    1.72327383E-03 
   4.63225624E+02    8.92557153E-03 
   1.31200196E+02    3.57279845E-02 
   4.28530159E+01    1.10762599E-01 
   1.55841858E+01    2.42956276E-01 
S    2    1.000000
   6.20671385E+00    4.14402634E-01 
   2.57648965E+00    2.37449687E-01 
S    1    1.000000
   5.76963394E-01    1.00000000E+00 
S    1    1.000000
   2.29728314E-01    1.00000000E+00 
S    1    1.000000
   9.51644400E-02    1.00000000E+00 
S    1    1.000000
   4.84754014E-02    1.00000000E+00 
P    4    1.000000
   3.46972322E+01    5.33336578E-03 
   7.95826228E+00    3.58641091E-02 
   2.37808269E+00    1.42158733E-01 
   8.14332082E-01    3.42704718E-01 
P    1    1.000000
   2.88875473E-01    4.64458224E-01 
P    1    1.000000
   1.00568237E-01    2.49557899E-01 
D    1    1.000000
   1.09700000E+00    1.00000000E+00 
D    1    1.000000
   3.18000000E-01    1.00000000E+00 
F    1    1.000000
   7.61000000E-01    1.00000000E+00 
****
C    0
S    6    1.000000
   1.35753497E+04    2.22458144E-04 
   2.03523337E+03    1.72327383E-03 
   4.63225624E+02    8.92557153E-03 
   1.31200196E+02    3.57279845E-02 
   4.28530159E+01    1.10762599E-01 
   1.55841858E+01    2.42956276E-01 
S    2    1.000000
   6.20671385E+00    4.14402634E-01 
   2.57648965E+00    2.37449687E-01 
S    1    1.000000
   5.76963394E-01    1.00000000E+00 
S    1    1.000000
   2.29728314E-01    1.00000000E+00 
S    1    1.000000
   9.51644400E-02    1.00000000E+00 
S    1    1.000000
   4.84754014E-02    1.00000000E+00 
P    4    1.000000
   3.46972322E+01    5.33336578E-03 
   7.95826228E+00    3.58641091E-02 
   2.37808269E+00    1.42158733E-01 
   8.14332082E-01    3.42704718E-01 
P    1    1.000000
   2.88875473E-01    4.64458224E-01 
P    1    1.000000
   1.00568237E-01    2.49557899E-01 
D    1    1.000000
   1.09700000E+00    1.00000000E+00 
D    1    1.000000
   3.18000000E-01    1.00000000E+00 
F    1    1.000000
   7.61000000E-01    1.00000000E+00 
****
C    0
S    6    1.000000
   1.35753497E+04    2.22458144E-04 
   2.03523337E+03    1.72327383E-03 
   4.63225624E+02    8.92557153E-03 
   1.31200196E+02    3.57279845E-02 
   4.28530159E+01    1.10762599E-01 
   1.55841858E+01    2.42956276E-01 
S    2    1.000000
   6.20671385E+00    4.14402634E-01 
   2.57648965E+00    2.37449687E-01 
S    1    1.000000
   5.76963394E-01    1.00000000E+00 
S    1    1.000000
   2.29728314E-01    1.00000000E+00 
S    1    1.000000
   9.51644400E-02    1.00000000E+00 
S    1    1.000000
   4.84754014E-02    1.00000000E+00 
P    4    1.000000
   3.46972322E+01    5.33336578E-03 
   7.95826228E+00    3.58641091E-02 
   2.37808269E+00    1.42158733E-01 
   8.14332082E-01    3.42704718E-01 
P    1    1.000000
   2.88875473E-01    4.64458224E-01 
P    1    1.000000
   1.00568237E-01    2.49557899E-01 
D    1    1.000000
   1.09700000E+00    1.00000000E+00 
D    1    1.000000
   3.18000000E-01    1.00000000E+00 
F    1    1.000000
   7.61000000E-01    1.00000000E+00 
****
O    0
S    6    1.000000
   2.70323826E+04    2.17263025E-04 
   4.05238714E+03    1.68386622E-03 
   9.22327227E+02    8.73956163E-03 
   2.61240710E+02    3.52399688E-02 
   8.53546414E+01    1.11535191E-01 
   3.10350352E+01    2.55889540E-01 
S    2    1.000000
   1.22608607E+01    3.97687309E-01 
   4.99870760E+00    2.46278494E-01 
S    1    1.000000
   1.17031082E+00    1.00000000E+00 
S    1    1.000000
   4.64747410E-01    1.00000000E+00 
S    1    1.000000
   1.85045364E-01    1.00000000E+00 
S    1    1.000000
   7.02880263E-02    1.00000000E+00 
P    4    1.000000
   6.32749548E+01    6.06851034E-03 
   1.46270494E+01    4.19125758E-02 
   4.45012235E+00    1.61538411E-01 
   1.52757996E+00    3.57069513E-01 
P    1    1.000000
   5.29351179E-01    4.47942075E-01 
P    1    1.000000
   1.74784213E-01    2.44460697E-01 
P    1    1.000000
   5.11127457E-02    1.00000000E+00 
D    1    1.000000
   2.31400000E+00    1.00000000E+00 
D    1    1.000000
   6.45000000E-01    1.00000000E+00 
F    1    1.000000
   1.42800000E+00    1.00000000E+00 
****
C    0
S    6    1.000000
   1.35753497E+04    2.22458144E-04 
   2.03523337E+03    1.72327383E-03 
   4.63225624E+02    8.92557153E-03 
   1.31200196E+02    3.57279845E-02 
   4.28530159E+01    1.10762599E-01 
   1.55841858E+01    2.42956276E-01 
S    2    1.000000
   6.20671385E+00    4.14402634E-01 
   2.57648965E+00    2.37449687E-01 
S    1    1.000000
   5.76963394E-01    1.00000000E+00 
S    1    1.000000
   2.29728314E-01    1.00000000E+00 
S    1    1.000000
   9.51644400E-02    1.00000000E+00 
S    1    1.000000
   4.84754014E-02    1.00000000E+00 
P    4    1.000000
   3.46972322E+01    5.33336578E-03 
   7.95826228E+00    3.58641091E-02 
   2.37808269E+00    1.42158733E-01 
   8.14332082E-01    3.42704718E-01 
P    1    1.000000
   2.88875473E-01    4.64458224E-01 
P    1    1.000000
   1.00568237E-01    2.49557899E-01 
D    1    1.000000
   1.09700000E+00    1.00000000E+00 
D    1    1.000000
   3.18000000E-01    1.00000000E+00 
F    1    1.000000
   7.61000000E-01    1.00000000E+00 
****
C    0
S    6    1.000000
   1.35753497E+04    2.22458144E-04 
   2.03523337E+03    1.72327383E-03 
   4.63225624E+02    8.92557153E-03 
   1.31200196E+02    3.57279845E-02 
   4.28530159E+01    1.10762599E-01 
   1.55841858E+01    2.42956276E-01 
S    2    1.000000
   6.20671385E+00    4.14402634E-01 
   2.57648965E+00    2.37449687E-01 
S    1    1.000000
   5.76963394E-01    1.00000000E+00 
S    1    1.000000
   2.29728314E-01    1.00000000E+00 
S    1    1.000000
   9.51644400E-02    1.00000000E+00 
S    1    1.000000
   4.84754014E-02    1.00000000E+00 
P    4    1.000000
   3.46972322E+01    5.33336578E-03 
   7.95826228E+00    3.58641091E-02 
   2.37808269E+00    1.42158733E-01 
   8.14332082E-01    3.42704718E-01 
P    1    1.000000
   2.88875473E-01    4.64458224E-01 
P    1    1.000000
   1.00568237E-01    2.49557899E-01 
D    1    1.000000
   1.09700000E+00    1.00000000E+00 
D    1    1.000000
   3.18000000E-01    1.00000000E+00 
F    1    1.000000
   7.61000000E-01    1.00000000E+00 
****
C    0
S    6    1.000000
   1.35753497E+04    2.22458144E-04 
   2.03523337E+03    1.72327383E-03 
   4.63225624E+02    8.92557153E-03 
   1.31200196E+02    3.57279845E-02 
   4.28530159E+01    1.10762599E-01 
   1.55841858E+01    2.42956276E-01 
S    2    1.000000
   6.20671385E+00    4.14402634E-01 
   2.57648965E+00    2.37449687E-01 
S    1    1.000000
   5.76963394E-01    1.00000000E+00 
S    1    1.000000
   2.29728314E-01    1.00000000E+00 
S    1    1.000000
   9.51644400E-02    1.00000000E+00 
S    1    1.000000
   4.84754014E-02    1.00000000E+00 
P    4    1.000000
   3.46972322E+01    5.33336578E-03 
   7.95826228E+00    3.58641091E-02 
   2.37808269E+00    1.42158733E-01 
   8.14332082E-01    3.42704718E-01 
P    1    1.000000
   2.88875473E-01    4.64458224E-01 
P    1    1.000000
   1.00568237E-01    2.49557899E-01 
D    1    1.000000
   1.09700000E+00    1.00000000E+00 
D    1    1.000000
   3.18000000E-01    1.00000000E+00 
F    1    1.000000
   7.61000000E-01    1.00000000E+00 
****
C    0
S    6    1.000000
   1.35753497E+04    2.22458144E-04 
   2.03523337E+03    1.72327383E-03 
   4.63225624E+02    8.92557153E-03 
   1.31200196E+02    3.57279845E-02 
   4.28530159E+01    1.10762599E-01 
   1.55841858E+01    2.42956276E-01 
S    2    1.000000
   6.20671385E+00    4.14402634E-01 
   2.57648965E+00    2.37449687E-01 
S    1    1.000000
   5.76963394E-01    1.00000000E+00 
S    1    1.000000
   2.29728314E-01    1.00000000E+00 
S    1    1.000000
   9.51644400E-02    1.00000000E+00 
S    1    1.000000
   4.84754014E-02    1.00000000E+00 
P    4    1.000000
   3.46972322E+01    5.33336578E-03 
   7.95826228E+00    3.58641091E-02 
   2.37808269E+00    1.42158733E-01 
   8.14332082E-01    3.42704718E-01 
P    1    1.000000
   2.88875473E-01    4.64458224E-01 
P    1    1.000000
   1.00568237E-01    2.49557899E-01 
D    1    1.000000
   1.09700000E+00    1.00000000E+00 
D    1    1.000000
   3.18000000E-01    1.00000000E+00 
F    1    1.000000
   7.61000000E-01    1.00000000E+00 
****
C    0
S    6    1.000000
   1.35753497E+04    2.22458144E-04 
   2.03523337E+03    1.72327383E-03 
   4.63225624E+02    8.92557153E-03 
   1.31200196E+02    3.57279845E-02 
   4.28530159E+01    1.10762599E-01 
   1.55841858E+01    2.42956276E-01 
S    2    1.000000
   6.20671385E+00    4.14402634E-01 
   2.57648965E+00    2.37449687E-01 
S    1    1.000000
   5.76963394E-01    1.00000000E+00 
S    1    1.000000
   2.29728314E-01    1.00000000E+00 
S    1    1.000000
   9.51644400E-02    1.00000000E+00 
S    1    1.000000
   4.84754014E-02    1.00000000E+00 
P    4    1.000000
   3.46972322E+01    5.33336578E-03 
   7.95826228E+00    3.58641091E-02 
   2.37808269E+00    1.42158733E-01 
   8.14332082E-01    3.42704718E-01 
P    1    1.000000
   2.88875473E-01    4.64458224E-01 
P    1    1.000000
   1.00568237E-01    2.49557899E-01 
D    1    1.000000
   1.09700000E+00    1.00000000E+00 
D    1    1.000000
   3.18000000E-01    1.00000000E+00 
F    1    1.000000
   7.61000000E-01    1.00000000E+00 
****
C    0
S    6    1.000000
   1.35753497E+04    2.22458144E-04 
   2.03523337E+03    1.72327383E-03 
   4.63225624E+02    8.92557153E-03 
   1.31200196E+02    3.57279845E-02 
   4.28530159E+01    1.10762599E-01 
   1.55841858E+01    2.42956276E-01 
S    2    1.000000
   6.20671385E+00    4.14402634E-01 
   2.57648965E+00    2.37449687E-01 
S    1    1.000000
   5.76963394E-01    1.00000000E+00 
S    1    1.000000
   2.29728314E-01    1.00000000E+00 
S    1    1.000000
   9.51644400E-02    1.00000000E+00 
S    1    1.000000
   4.84754014E-02    1.00000000E+00 
P    4    1.000000
   3.46972322E+01    5.33336578E-03 
   7.95826228E+00    3.58641091E-02 
   2.37808269E+00    1.42158733E-01 
   8.14332082E-01    3.42704718E-01 
P    1    1.000000
   2.88875473E-01    4.64458224E-01 
P    1    1.000000
   1.00568237E-01    2.49557899E-01 
D    1    1.000000
   1.09700000E+00    1.00000000E+00 
D    1    1.000000
   3.18000000E-01    1.00000000E+00 
F    1    1.000000
   7.61000000E-01    1.00000000E+00 
****
O    0
S    6    1.000000
   2.70323826E+04    2.17263025E-04 
   4.05238714E+03    1.68386622E-03 
   9.22327227E+02    8.73956163E-03 
   2.61240710E+02    3.52399688E-02 
   8.53546414E+01    1.11535191E-01 
   3.10350352E+01    2.55889540E-01 
S    2    1.000000
   1.22608607E+01    3.97687309E-01 
   4.99870760E+00    2.46278494E-01 
S    1    1.000000
   1.17031082E+00    1.00000000E+00 
S    1    1.000000
   4.64747410E-01    1.00000000E+00 
S    1    1.000000
   1.85045364E-01    1.00000000E+00 
S    1    1.000000
   7.02880263E-02    1.00000000E+00 
P    4    1.000000
   6.32749548E+01    6.06851034E-03 
   1.46270494E+01    4.19125758E-02 
   4.45012235E+00    1.61538411E-01 
   1.52757996E+00    3.57069513E-01 
P    1    1.000000
   5.29351179E-01    4.47942075E-01 
P    1    1.000000
   1.74784213E-01    2.44460697E-01 
P    1    1.000000
   5.11127457E-02    1.00000000E+00 
D    1    1.000000
   2.31400000E+00    1.00000000E+00 
D    1    1.000000
   6.45000000E-01    1.00000000E+00 
F    1    1.000000
   1.42800000E+00    1.00000000E+00 
****
H    0
S    3    1.000000
   3.40613410E+01    6.02519780E-03 
   5.12357460E+00    4.50210940E-02 
   1.16466260E+00    2.01897260E-01 
S    1    1.000000
   3.27230410E-01    1.00000000E+00 
S    1    1.000000
   1.03072410E-01    1.00000000E+00 
P    1    1.000000
   8.00000000E-01    1.00000000E+00 
****
O    0
S    6    1.000000
   2.70323826E+04    2.17263025E-04 
   4.05238714E+03    1.68386622E-03 
   9.22327227E+02    8.73956163E-03 
   2.61240710E+02    3.52399688E-02 
   8.53546414E+01    1.11535191E-01 
   3.10350352E+01    2.55889540E-01 
S    2    1.000000
   1.22608607E+01    3.97687309E-01 
   4.99870760E+00    2.46278494E-01 
S    1    1.000000
   1.17031082E+00    1.00000000E+00 
S    1    1.000000
   4.64747410E-01    1.00000000E+00 
S    1    1.000000
   1.85045364E-01    1.00000000E+00 
S    1    1.000000
   7.02880263E-02    1.00000000E+00 
P    4    1.000000
   6.32749548E+01    6.06851034E-03 
   1.46270494E+01    4.19125758E-02 
   4.45012235E+00    1.61538411E-01 
   1.52757996E+00    3.57069513E-01 
P    1    1.000000
   5.29351179E-01    4.47942075E-01 
P    1    1.000000
   1.74784213E-01    2.44460697E-01 
P    1    1.000000
   5.11127457E-02    1.00000000E+00 
D    1    1.000000
   2.31400000E+00    1.00000000E+00 
D    1    1.000000
   6.45000000E-01    1.00000000E+00 
F    1    1.000000
   1.42800000E+00    1.00000000E+00 
****
H    0
S    3    1.000000
   3.40613410E+01    6.02519780E-03 
   5.12357460E+00    4.50210940E-02 
   1.16466260E+00    2.01897260E-01 
S    1    1.000000
   3.27230410E-01    1.00000000E+00 
S    1    1.000000
   1.03072410E-01    1.00000000E+00 
P    1    1.000000
   8.00000000E-01    1.00000000E+00 
****
H    0
S    3    1.000000
   3.40613410E+01    6.02519780E-03 
   5.12357460E+00    4.50210940E-02 
   1.16466260E+00    2.01897260E-01 
S    1    1.000000
   3.27230410E-01    1.00000000E+00 
S    1    1.000000
   1.03072410E-01    1.00000000E+00 
P    1    1.000000
   8.00000000E-01    1.00000000E+00 
****
O    0
S    6    1.000000
   2.70323826E+04    2.17263025E-04 
   4.05238714E+03    1.68386622E-03 
   9.22327227E+02    8.73956163E-03 
   2.61240710E+02    3.52399688E-02 
   8.53546414E+01    1.11535191E-01 
   3.10350352E+01    2.55889540E-01 
S    2    1.000000
   1.22608607E+01    3.97687309E-01 
   4.99870760E+00    2.46278494E-01 
S    1    1.000000
   1.17031082E+00    1.00000000E+00 
S    1    1.000000
   4.64747410E-01    1.00000000E+00 
S    1    1.000000
   1.85045364E-01    1.00000000E+00 
S    1    1.000000
   7.02880263E-02    1.00000000E+00 
P    4    1.000000
   6.32749548E+01    6.06851034E-03 
   1.46270494E+01    4.19125758E-02 
   4.45012235E+00    1.61538411E-01 
   1.52757996E+00    3.57069513E-01 
P    1    1.000000
   5.29351179E-01    4.47942075E-01 
P    1    1.000000
   1.74784213E-01    2.44460697E-01 
P    1    1.000000
   5.11127457E-02    1.00000000E+00 
D    1    1.000000
   2.31400000E+00    1.00000000E+00 
D    1    1.000000
   6.45000000E-01    1.00000000E+00 
F    1    1.000000
   1.42800000E+00    1.00000000E+00 
****
H    0
S    3    1.000000
   3.40613410E+01    6.02519780E-03 
   5.12357460E+00    4.50210940E-02 
   1.16466260E+00    2.01897260E-01 
S    1    1.000000
   3.27230410E-01    1.00000000E+00 
S    1    1.000000
   1.03072410E-01    1.00000000E+00 
P    1    1.000000
   8.00000000E-01    1.00000000E+00 
****
O    0
S    6    1.000000
   2.70323826E+04    2.17263025E-04 
   4.05238714E+03    1.68386622E-03 
   9.22327227E+02    8.73956163E-03 
   2.61240710E+02    3.52399688E-02 
   8.53546414E+01    1.11535191E-01 
   3.10350352E+01    2.55889540E-01 
S    2    1.000000
   1.22608607E+01    3.97687309E-01 
   4.99870760E+00    2.46278494E-01 
S    1    1.000000
   1.17031082E+00    1.00000000E+00 
S    1    1.000000
   4.64747410E-01    1.00000000E+00 
S    1    1.000000
   1.85045364E-01    1.00000000E+00 
S    1    1.000000
   7.02880263E-02    1.00000000E+00 
P    4    1.000000
   6.32749548E+01    6.06851034E-03 
   1.46270494E+01    4.19125758E-02 
   4.45012235E+00    1.61538411E-01 
   1.52757996E+00    3.57069513E-01 
P    1    1.000000
   5.29351179E-01    4.47942075E-01 
P    1    1.000000
   1.74784213E-01    2.44460697E-01 
P    1    1.000000
   5.11127457E-02    1.00000000E+00 
D    1    1.000000
   2.31400000E+00    1.00000000E+00 
D    1    1.000000
   6.45000000E-01    1.00000000E+00 
F    1    1.000000
   1.42800000E+00    1.00000000E+00 
****
O    0
S    6    1.000000
   2.70323826E+04    2.17263025E-04 
   4.05238714E+03    1.68386622E-03 
   9.22327227E+02    8.73956163E-03 
   2.61240710E+02    3.52399688E-02 
   8.53546414E+01    1.11535191E-01 
   3.10350352E+01    2.55889540E-01 
S    2    1.000000
   1.22608607E+01    3.97687309E-01 
   4.99870760E+00    2.46278494E-01 
S    1    1.000000
   1.17031082E+00    1.00000000E+00 
S    1    1.000000
   4.64747410E-01    1.00000000E+00 
S    1    1.000000
   1.85045364E-01    1.00000000E+00 
S    1    1.000000
   7.02880263E-02    1.00000000E+00 
P    4    1.000000
   6.32749548E+01    6.06851034E-03 
   1.46270494E+01    4.19125758E-02 
   4.45012235E+00    1.61538411E-01 
   1.52757996E+00    3.57069513E-01 
P    1    1.000000
   5.29351179E-01    4.47942075E-01 
P    1    1.000000
   1.74784213E-01    2.44460697E-01 
P    1    1.000000
   5.11127457E-02    1.00000000E+00 
D    1    1.000000
   2.31400000E+00    1.00000000E+00 
D    1    1.000000
   6.45000000E-01    1.00000000E+00 
F    1    1.000000
   1.42800000E+00    1.00000000E+00 
****
H    0
S    3    1.000000
   3.40613410E+01    6.02519780E-03 
   5.12357460E+00    4.50210940E-02 
   1.16466260E+00    2.01897260E-01 
S    1    1.000000
   3.27230410E-01    1.00000000E+00 
S    1    1.000000
   1.03072410E-01    1.00000000E+00 
P    1    1.000000
   8.00000000E-01    1.00000000E+00 
****
H    0
S    3    1.000000
   3.40613410E+01    6.02519780E-03 
   5.12357460E+00    4.50210940E-02 
   1.16466260E+00    2.01897260E-01 
S    1    1.000000
   3.27230410E-01    1.00000000E+00 
S    1    1.000000
   1.03072410E-01    1.00000000E+00 
P    1    1.000000
   8.00000000E-01    1.00000000E+00 
****
H    0
S    3    1.000000
   3.40613410E+01    6.02519780E-03 
   5.12357460E+00    4.50210940E-02 
   1.16466260E+00    2.01897260E-01 
S    1    1.000000
   3.27230410E-01    1.00000000E+00 
S    1    1.000000
   1.03072410E-01    1.00000000E+00 
P    1    1.000000
   8.00000000E-01    1.00000000E+00 
****
H    0
S    3    1.000000
   3.40613410E+01    6.02519780E-03 
   5.12357460E+00    4.50210940E-02 
   1.16466260E+00    2.01897260E-01 
S    1    1.000000
   3.27230410E-01    1.00000000E+00 
S    1    1.000000
   1.03072410E-01    1.00000000E+00 
P    1    1.000000
   8.00000000E-01    1.00000000E+00 
****
H    0
S    3    1.000000
   3.40613410E+01    6.02519780E-03 
   5.12357460E+00    4.50210940E-02 
   1.16466260E+00    2.01897260E-01 
S    1    1.000000
   3.27230410E-01    1.00000000E+00 
S    1    1.000000
   1.03072410E-01    1.00000000E+00 
P    1    1.000000
   8.00000000E-01    1.00000000E+00 
****
H    0
S    3    1.000000
   3.40613410E+01    6.02519780E-03 
   5.12357460E+00    4.50210940E-02 
   1.16466260E+00    2.01897260E-01 
S    1    1.000000
   3.27230410E-01    1.00000000E+00 
S    1    1.000000
   1.03072410E-01    1.00000000E+00 
P    1    1.000000
   8.00000000E-01    1.00000000E+00 
****
$end
-----------------------------------------------------------------------
 There are 298 shells and 750 basis functions

 Total QAlloc Memory Limit  64000 MB
 Mega-Array Size      1956 MB
 MEM_STATIC part      2000 MB

 User-specified dielectric constants (eps_0 = 78.39, eps_inf = 1.78)
 Using C-PCM dielectric factor f(eps) = (eps-1)/eps = 0.987243
 Static dielectric constant eps = 78.39
 Discretize the solute cavity surface with Lebedev spheres
	Using 110 Lebedev grid points for each H atom
	Using 194 Lebedev grid points for other atoms
	Atomic van der Waals radii (Bondi set) will be scaled by 1.20
 Using smooth SwiG surface discretization
 Remove points where switching function is < 1.0e-08
 Keep 2122 surface tesserae and discard 3052 interior tesserae
 Molecular Surface Area = 296.908 Angst**2

 A cutoff of  1.0D-12 yielded  32165 shell pairs
 There are    192127 function pairs (    244286 Cartesian)
 Smallest overlap matrix eigenvalue = 4.42E-06

 Scale SEOQF with 1.000000e-01/1.000000e-01/1.000000e-02

 Standard Electronic Orientation quadrupole field applied
 Nucleus-field energy     =     0.0000000107 hartrees
 Guess from superposition of atomic densities
 Warning:  Energy on first SCF cycle will be non-variational
 SAD guess density has 148.000000 electrons

 -----------------------------------------------------------------------
  General SCF calculation program by
  Eric Jon Sundstrom, Paul Horn, Yuezhi Mao, Dmitri Zuev, Alec White,
  David Stuck, Shaama M.S., Shane Yost, Joonho Lee, David Small,
  Daniel Levine, Susi Lehtola, Hugh Burton, Evgeny Epifanovsky,
  Bang C. Huynh
 -----------------------------------------------------------------------
 Exchange:     0.1900 Hartree-Fock + 0.3500 B88 + 0.4600 muB88 + LR-HF
 Correlation:  0.1900 VWN5 + 0.8100 LYP
 Using SG-1 standard quadrature grid
 using 16 threads for integral computing
 -------------------------------------------------------
 OpenMP Integral computing Module                
 Release: version 1.0, May 2013, Q-Chem Inc. Pittsburgh 
 -------------------------------------------------------
 C-PCM solvent model [f = (eps-1)/eps], solve by matrix inversion
 DFT Correlation          Energy =  -6.03826899709281
 DFT Exchange             Energy = -92.73948511224825
 HF Exchange              Energy = -38.00398522672056
 One-Electron             Energy = -4496.66991642872745
 SCRF wf-dependent energy Energy =   0.00000000000000
 Total Coulomb            Energy = 2034.62040107805819
 Nuclear repulsion Energy = 1563.64581857358053
 A restricted SCF calculation will be
 performed using DIIS
 SCF converges when DIIS error is below 1.0e-08
 DFT Correlation          Energy =  -6.03826899709281
 DFT Exchange             Energy = -92.73948511224825
 HF Exchange              Energy = -38.00398522672056
 One-Electron             Energy = -4496.66991642872745
 SCRF wf-dependent energy Energy =   0.00000000000000
 Total Coulomb            Energy = 2034.62040107805819
 ---------------------------------------
  Cycle       Energy         DIIS error
 ---------------------------------------
 DFT Correlation          Energy =  -6.12073855063530
 DFT Exchange             Energy = -94.72597343566808
 HF Exchange              Energy = -36.71351874372359
 One-Electron             Energy = -4514.76248173965905
 SCRF wf-dependent energy Energy =  -1.65693558245289
 Total Coulomb            Energy = 2061.74206232835468
 Nuclear repulsion Energy = 1563.64581857358053
    1   -1035.1854361132      2.12e-02  
 DFT Correlation          Energy =  -6.06093037017417
 DFT Exchange             Energy = -93.00131447329051
 HF Exchange              Energy = -36.22844669862577
 One-Electron             Energy = -4503.62900710502890
 SCRF wf-dependent energy Energy =   0.60064367996119
 Total Coulomb            Energy = 2046.25469089582816
 Nuclear repulsion Energy = 1563.64581857358053
    2   -1028.5917671502      2.34e-03  
 DFT Correlation          Energy =  -6.08760211732464
 DFT Exchange             Energy = -93.82587436486251
 HF Exchange              Energy = -36.47987247679173
 One-Electron             Energy = -4505.47856607069298
 SCRF wf-dependent energy Energy =  -1.51072502901161
 Total Coulomb            Energy = 2050.84300827479819
 Nuclear repulsion Energy = 1563.64581857358053
    3   -1028.4185454977      3.06e-03  
 DFT Correlation          Energy =  -6.09023559418454
 DFT Exchange             Energy = -93.87610722627268
 HF Exchange              Energy = -36.49253797428036
 One-Electron             Energy = -4507.86628263055809
 SCRF wf-dependent energy Energy =  -0.98025651354078
 Total Coulomb            Energy = 2052.74936500644935
 Nuclear repulsion Energy = 1563.64581857358053
    4   -1028.8938132103      5.73e-04  
 DFT Correlation          Energy =  -6.08983434427797
 DFT Exchange             Energy = -93.86232996342400
 HF Exchange              Energy = -36.48987536762807
 One-Electron             Energy = -4507.79294955910336
 SCRF wf-dependent energy Energy =  -0.97532387706519
 Total Coulomb            Energy = 2052.65230029958138
 Nuclear repulsion Energy = 1563.64581857358053
    5   -1028.9102363588      1.98e-04  
 DFT Correlation          Energy =  -6.08958050247679
 DFT Exchange             Energy = -93.86019497460683
 HF Exchange              Energy = -36.49017916734019
 One-Electron             Energy = -4507.58437268807211
 SCRF wf-dependent energy Energy =  -1.01219755459442
 Total Coulomb            Energy = 2052.47823723620240
 Nuclear repulsion Energy = 1563.64581857358053
    6   -1028.9121942383      6.36e-05  
 DFT Correlation          Energy =  -6.08957806278972
 DFT Exchange             Energy = -93.85961182114924
 HF Exchange              Energy = -36.49032112997620
 One-Electron             Energy = -4507.60970631198870
 SCRF wf-dependent energy Energy =  -1.00091060592649
 Total Coulomb            Energy = 2052.49180443123669
 Nuclear repulsion Energy = 1563.64581857358053
    7   -1028.9124690773      1.66e-05  
 DFT Correlation          Energy =  -6.08963215304890
 DFT Exchange             Energy = -93.86091269696472
 HF Exchange              Energy = -36.49081234764171
 One-Electron             Energy = -4507.63683465901067
 SCRF wf-dependent energy Energy =  -0.99765413934938
 Total Coulomb            Energy = 2052.51751007055827
 Nuclear repulsion Energy = 1563.64581857358053
    8   -1028.9125049270      7.95e-06  
 DFT Correlation          Energy =  -6.08962910342190
 DFT Exchange             Energy = -93.86100341960838
 HF Exchange              Energy = -36.49093791754357
 One-Electron             Energy = -4507.64188820073559
 SCRF wf-dependent energy Energy =  -0.99424878045602
 Total Coulomb            Energy = 2052.51936674391436
 Nuclear repulsion Energy = 1563.64581857358053
    9   -1028.9125173519      3.96e-06  
 DFT Correlation          Energy =  -6.08962282125936
 DFT Exchange             Energy = -93.86077246197553
 HF Exchange              Energy = -36.49089611576324
 One-Electron             Energy = -4507.63917773430876
 SCRF wf-dependent energy Energy =  -0.99406751415631
 Total Coulomb            Energy = 2052.51619522631199
 Nuclear repulsion Energy = 1563.64581857358053
   10   -1028.9125221043      1.86e-06  
 DFT Correlation          Energy =  -6.08962780997869
 DFT Exchange             Energy = -93.86094430974643
 HF Exchange              Energy = -36.49094261197260
 One-Electron             Energy = -4507.64315233656271
 SCRF wf-dependent energy Energy =  -0.99312755395999
 Total Coulomb            Energy = 2052.51945302560853
 Nuclear repulsion Energy = 1563.64581857358053
   11   -1028.9125228476      7.15e-07  
 DFT Correlation          Energy =  -6.08962825899698
 DFT Exchange             Energy = -93.86092945292886
 HF Exchange              Energy = -36.49093840071720
 One-Electron             Energy = -4507.64372823506255
 SCRF wf-dependent energy Energy =  -0.99287262611074
 Total Coulomb            Energy = 2052.51975534276926
 Nuclear repulsion Energy = 1563.64581857358053
   12   -1028.9125230230      4.45e-07  
 DFT Correlation          Energy =  -6.08962801502985
 DFT Exchange             Energy = -93.86093191608261
 HF Exchange              Energy = -36.49093792959717
 One-Electron             Energy = -4507.64362214970424
 SCRF wf-dependent energy Energy =  -0.99285128225597
 Total Coulomb            Energy = 2052.51962965744497
 Nuclear repulsion Energy = 1563.64581857358053
   13   -1028.9125230575      1.50e-07  
 DFT Correlation          Energy =  -6.08962804522585
 DFT Exchange             Energy = -93.86093146431510
 HF Exchange              Energy = -36.49093744483184
 One-Electron             Energy = -4507.64366892472481
 SCRF wf-dependent energy Energy =  -0.99283431121785
 Total Coulomb            Energy = 2052.51965855500430
 Nuclear repulsion Energy = 1563.64581857358053
   14   -1028.9125230616      4.27e-08  
 DFT Correlation          Energy =  -6.08962806672376
 DFT Exchange             Energy = -93.86093173643999
 HF Exchange              Energy = -36.49093746358733
 One-Electron             Energy = -4507.64369221089237
 SCRF wf-dependent energy Energy =  -0.99282776781843
 Total Coulomb            Energy = 2052.51967561006131
 Nuclear repulsion Energy = 1563.64581857358053
   15   -1028.9125230617      2.05e-08  
   16   -1028.9125230618      5.99e-09  Convergence criterion met
 ---------------------------------------
 DFT Correlation          Energy =  -6.08962806672376
 DFT Exchange             Energy = -93.86093173643999
 HF Exchange              Energy = -36.49093746358733
 One-Electron             Energy = -4507.64369221089237
 SCRF wf-dependent energy Energy =  -0.99282776781843
 Total Coulomb            Energy = 2052.51967561006131
 Final Alpha MO Eigenvalues
            1           2           3           4           5           6
    1 -19.2947470 -19.2454430 -19.2454003 -19.2437122 -19.2423927 -19.1543019
            7           8           9          10          11          12
    1 -10.3570657 -10.3454114 -10.3364547 -10.3362839 -10.3255402 -10.3229014
           13          14          15          16          17          18
    1 -10.3207893 -10.2997064 -10.2854973 -10.2790604 -10.2646704 -10.2609433
           19          20          21          22          23          24
    1 -10.2565478 -10.2457060 -10.2368658  -1.2205478  -1.1684637  -1.1605797
           25          26          27          28          29          30
    1  -1.1595829  -1.1408043  -1.0774838  -0.9667883  -0.9537853  -0.9208091
           31          32          33          34          35          36
    1  -0.8770539  -0.8424549  -0.8395104  -0.8201783  -0.7664007  -0.7533252
           37          38          39          40          41          42
    1  -0.7236412  -0.7130327  -0.7021335  -0.6505223  -0.6443810  -0.6374636
           43          44          45          46          47          48
    1  -0.6229615  -0.6105826  -0.5945077  -0.5814929  -0.5725675  -0.5636593
           49          50          51          52          53          54
    1  -0.5547402  -0.5320942  -0.5219538  -0.5190637  -0.5103993  -0.5052497
           55          56          57          58          59          60
    1  -0.5000018  -0.4897093  -0.4875811  -0.4795806  -0.4721588  -0.4670324
           61          62          63          64          65          66
    1  -0.4562814  -0.4526105  -0.4507612  -0.4407805  -0.4296574  -0.4274179
           67          68          69          70          71          72
    1  -0.4191970  -0.3971566  -0.3562886  -0.3159339  -0.3143563  -0.3049791
           73          74          75          76          77          78
    1  -0.2922508  -0.2492628  -0.0676075   0.0102323   0.0258928   0.0271107
           79          80          81          82          83          84
    1   0.0311796   0.0410121   0.0453486   0.0483824   0.0544521   0.0619118
           85          86          87          88          89          90
    1   0.0646761   0.0704942   0.0763103   0.0834686   0.0871516   0.0919097
           91          92          93          94          95          96
    1   0.0929990   0.1015875   0.1024417   0.1086970   0.1120787   0.1188784
           97          98          99         100         101         102
    1   0.1201434   0.1234027   0.1295318   0.1375157   0.1405485   0.1473837
          103         104         105         106         107         108
    1   0.1515611   0.1534795   0.1569891   0.1606252   0.1724944   0.1773858
          109         110         111         112         113         114
    1   0.1852379   0.1880087   0.1925621   0.1996242   0.2035438   0.2122326
          115         116         117         118         119         120
    1   0.2186704   0.2196431   0.2223152   0.2284369   0.2331791   0.2360230
          121         122         123         124         125         126
    1   0.2411495   0.2425932   0.2490562   0.2511140   0.2640925   0.2713807
          127         128         129         130         131         132
    1   0.2737353   0.2773154   0.2793625   0.2873329   0.2959211   0.2969858
          133         134         135         136         137         138
    1   0.3031659   0.3065958   0.3088166   0.3157676   0.3170740   0.3198580
          139         140         141         142         143         144
    1   0.3230224   0.3260843   0.3370197   0.3381991   0.3438771   0.3510618
          145         146         147         148         149         150
    1   0.3529476   0.3572028   0.3617460   0.3662994   0.3723854   0.3749257
          151         152         153         154         155         156
    1   0.3803120   0.3841174   0.3904133   0.3980121   0.4015003   0.4053933
          157         158         159         160         161         162
    1   0.4058681   0.4078289   0.4204392   0.4246060   0.4333411   0.4344046
          163         164         165         166         167         168
    1   0.4366544   0.4442705   0.4451487   0.4478099   0.4548359   0.4599747
          169         170         171         172         173         174
    1   0.4630983   0.4698826   0.4743033   0.4808716   0.4832575   0.4861416
          175         176         177         178         179         180
    1   0.4895153   0.4961260   0.5028946   0.5073514   0.5109580   0.5154913
          181         182         183         184         185         186
    1   0.5271254   0.5300715   0.5337207   0.5372081   0.5380808   0.5480189
          187         188         189         190         191         192
    1   0.5534226   0.5570996   0.5633772   0.5706820   0.5765180   0.5822981
          193         194         195         196         197         198
    1   0.5873992   0.5912136   0.5969665   0.6062724   0.6124266   0.6145909
          199         200         201         202         203         204
    1   0.6187061   0.6351908   0.6362506   0.6384449   0.6455513   0.6484117
          205         206         207         208         209         210
    1   0.6521964   0.6555064   0.6712225   0.6718083   0.6755838   0.6789608
          211         212         213         214         215         216
    1   0.6827476   0.6899383   0.6917951   0.6941507   0.7037568   0.7173822
          217         218         219         220         221         222
    1   0.7206385   0.7276819   0.7306275   0.7400015   0.7476212   0.7515008
          223         224         225         226         227         228
    1   0.7623073   0.7643630   0.7715629   0.7776278   0.7790362   0.7883162
          229         230         231         232         233         234
    1   0.7952834   0.7966282   0.8053537   0.8105173   0.8135097   0.8164744
          235         236         237         238         239         240
    1   0.8226370   0.8277684   0.8335947   0.8364708   0.8427410   0.8499118
          241         242         243         244         245         246
    1   0.8559927   0.8658142   0.8769383   0.8815155   0.8860005   0.8993841
          247         248         249         250         251         252
    1   0.9058483   0.9119399   0.9196548   0.9270581   0.9346899   0.9403450
          253         254         255         256         257         258
    1   0.9502522   0.9545332   0.9764913   0.9838631   0.9879198   1.0091545
          259         260         261         262         263         264
    1   1.0129907   1.0315867   1.0380959   1.0447987   1.0579708   1.0719290
          265         266         267         268         269         270
    1   1.0738524   1.0838272   1.0888102   1.1029834   1.1077079   1.1142583
          271         272         273         274         275         276
    1   1.1285298   1.1315650   1.1414234   1.1546766   1.1632927   1.1676195
          277         278         279         280         281         282
    1   1.1720222   1.1831229   1.1880843   1.1888961   1.2013572   1.2047520
          283         284         285         286         287         288
    1   1.2258022   1.2395560   1.2446593   1.2509557   1.2617504   1.2676592
          289         290         291         292         293         294
    1   1.2931484   1.2969075   1.2980162   1.3286925   1.3353561   1.3396663
          295         296         297         298         299         300
    1   1.3463872   1.3538398   1.3651068   1.3763621   1.3827628   1.3956358
          301         302         303         304         305         306
    1   1.4040334   1.4167474   1.4229005   1.4307574   1.4442016   1.4544489
          307         308         309         310         311         312
    1   1.4627019   1.4742054   1.4783462   1.4806574   1.4918424   1.5030332
          313         314         315         316         317         318
    1   1.5157502   1.5210202   1.5247056   1.5342461   1.5458484   1.5585165
          319         320         321         322         323         324
    1   1.5646003   1.5745612   1.5827692   1.5930158   1.6031750   1.6129859
          325         326         327         328         329         330
    1   1.6164791   1.6326766   1.6432460   1.6452684   1.6582274   1.6784081
          331         332         333         334         335         336
    1   1.6826952   1.6883840   1.6978951   1.7068844   1.7121566   1.7250022
          337         338         339         340         341         342
    1   1.7294363   1.7335683   1.7403882   1.7456282   1.7578120   1.7614637
          343         344         345         346         347         348
    1   1.7647376   1.7795838   1.7891967   1.7941374   1.8007059   1.8173040
          349         350         351         352         353         354
    1   1.8334535   1.8394773   1.8470902   1.8637489   1.8804519   1.8870910
          355         356         357         358         359         360
    1   1.9044026   1.9132608   1.9254136   1.9330912   1.9500535   1.9555848
          361         362         363         364         365         366
    1   1.9694308   1.9754764   1.9818693   1.9879343   1.9983869   2.0021401
          367         368         369         370         371         372
    1   2.0138426   2.0253900   2.0341154   2.0349941   2.0488601   2.0553053
          373         374         375         376         377         378
    1   2.0669928   2.0746976   2.0867337   2.0936426   2.1018666   2.1147934
          379         380         381         382         383         384
    1   2.1257943   2.1347728   2.1445389   2.1663442   2.1680855   2.1797641
          385         386         387         388         389         390
    1   2.1851590   2.1910780   2.1997859   2.2068420   2.2149139   2.2234711
          391         392         393         394         395         396
    1   2.2310872   2.2357288   2.2444578   2.2629668   2.2644548   2.2748752
          397         398         399         400         401         402
    1   2.2830368   2.2906733   2.2939374   2.3144569   2.3305528   2.3546024
          403         404         405         406         407         408
    1   2.3589304   2.3627306   2.3746895   2.3862187   2.3983304   2.4024151
          409         410         411         412         413         414
    1   2.4220050   2.4245517   2.4292888   2.4371201   2.4585545   2.4709958
          415         416         417         418         419         420
    1   2.4917182   2.5031127   2.5267513   2.5340275   2.5479267   2.5573196
          421         422         423         424         425         426
    1   2.5607891   2.5816951   2.5963817   2.6027323   2.6063964   2.6329637
          427         428         429         430         431         432
    1   2.6392559   2.6453037   2.6493185   2.6665832   2.6914253   2.6939765
          433         434         435         436         437         438
    1   2.6973766   2.7015210   2.7113876   2.7201314   2.7281537   2.7338919
          439         440         441         442         443         444
    1   2.7407427   2.7487027   2.7659266   2.7668779   2.7744672   2.7893030
          445         446         447         448         449         450
    1   2.7996999   2.8075559   2.8111837   2.8218116   2.8350403   2.8380033
          451         452         453         454         455         456
    1   2.8453740   2.8569610   2.8617131   2.8649279   2.8773801   2.8858747
          457         458         459         460         461         462
    1   2.8952716   2.8972234   2.9038715   2.9128419   2.9167040   2.9213773
          463         464         465         466         467         468
    1   2.9418527   2.9438274   2.9480421   2.9598994   2.9698842   2.9792094
          469         470         471         472         473         474
    1   2.9892233   2.9977675   3.0005997   3.0115849   3.0195957   3.0215505
          475         476         477         478         479         480
    1   3.0351260   3.0382577   3.0423963   3.0607161   3.0725910   3.0748129
          481         482         483         484         485         486
    1   3.0816615   3.0874881   3.0980683   3.1084851   3.1154627   3.1232681
          487         488         489         490         491         492
    1   3.1331067   3.1401197   3.1522744   3.1661773   3.1762971   3.1815857
          493         494         495         496         497         498
    1   3.1867403   3.1975419   3.2001985   3.2123621   3.2141766   3.2257787
          499         500         501         502         503         504
    1   3.2283709   3.2389576   3.2449542   3.2474076   3.2537985   3.2610909
          505         506         507         508         509         510
    1   3.2719796   3.2759094   3.2798398   3.2822909   3.2902222   3.2963880
          511         512         513         514         515         516
    1   3.3099575   3.3161637   3.3255681   3.3320348   3.3453810   3.3476834
          517         518         519         520         521         522
    1   3.3503488   3.3638399   3.3683638   3.3806994   3.3886784   3.3971147
          523         524         525         526         527         528
    1   3.4036536   3.4051257   3.4246670   3.4376856   3.4443029   3.4526922
          529         530         531         532         533         534
    1   3.4630916   3.4658476   3.4691006   3.4769713   3.4810088   3.4826475
          535         536         537         538         539         540
    1   3.4925288   3.4971936   3.5073693   3.5140803   3.5183950   3.5247451
          541         542         543         544         545         546
    1   3.5326542   3.5452150   3.5534809   3.5585585   3.5633686   3.5699752
          547         548         549         550         551         552
    1   3.5824763   3.5907278   3.5957140   3.6147871   3.6217748   3.6347881
          553         554         555         556         557         558
    1   3.6484282   3.6669094   3.6713035   3.6797688   3.6914727   3.6980058
          559         560         561         562         563         564
    1   3.7127504   3.7198062   3.7493457   3.7594838   3.7618424   3.7890860
          565         566         567         568         569         570
    1   3.8021471   3.8087350   3.8374261   3.8427265   3.8550883   3.8595352
          571         572         573         574         575         576
    1   3.8770192   3.9078804   3.9194008   3.9418119   3.9457540   3.9729084
          577         578         579         580         581         582
    1   3.9950471   4.0030469   4.0087897   4.0255240   4.0436381   4.0524291
          583         584         585         586         587         588
    1   4.0638696   4.0755153   4.1014821   4.1101823   4.1203844   4.1272010
          589         590         591         592         593         594
    1   4.1429048   4.1768897   4.1846260   4.1901440   4.2023293   4.2290022
          595         596         597         598         599         600
    1   4.2300438   4.2364023   4.2490495   4.2726471   4.2893643   4.2918026
          601         602         603         604         605         606
    1   4.2949537   4.3010083   4.3152199   4.3249020   4.3427596   4.3696404
          607         608         609         610         611         612
    1   4.3790413   4.3899846   4.4223366   4.4431582   4.4585165   4.4754664
          613         614         615         616         617         618
    1   4.4951085   4.5099944   4.5220633   4.5446194   4.5507995   4.5814292
          619         620         621         622         623         624
    1   4.5945703   4.6149291   4.6198280   4.6627011   4.6673392   4.6825413
          625         626         627         628         629         630
    1   4.6941680   4.7184686   4.7442600   4.7953807   4.8042751   4.8205315
          631         632         633         634         635         636
    1   4.8402447   4.8717961   4.9141696   4.9292236   4.9312627   4.9416244
          637         638         639         640         641         642
    1   4.9605779   4.9718763   5.0153818   5.0267639   5.0666734   5.0788285
          643         644         645         646         647         648
    1   5.1221486   5.1436024   5.1560838   5.2009783   5.2041995   5.2818427
          649         650         651         652         653         654
    1   5.2866638   5.2957077   5.3183789   5.3252848   5.3297346   5.3365484
          655         656         657         658         659         660
    1   5.3587093   5.3708537   5.3842687   5.4247527   5.4535087   5.4645685
          661         662         663         664         665         666
    1   5.5038688   5.5118112   5.5248809   5.5358038   5.5365965   5.5732786
          667         668         669         670         671         672
    1   5.5839963   5.5877461   5.6167791   5.6310262   5.6367890   5.6671402
          673         674         675         676         677         678
    1   5.6932685   5.7411406   5.7993045   5.8265285   5.8376602   5.8498705
          679         680         681         682         683         684
    1   5.8714715   5.9391957   5.9476535   6.0478574   6.0613605   6.0746093
          685         686         687         688         689         690
    1   6.1155402   6.1384815   6.2033689   6.2493890   6.2805979   6.3880780
          691         692         693         694         695         696
    1   6.4078788   6.4329102   6.4504757   6.4557222   6.4662714   6.4761174
          697         698         699         700         701         702
    1   6.4797107   6.4931959   6.4978355   6.5128139   6.6077043   6.6282322
          703         704         705         706         707         708
    1   6.6717962   6.7097658   6.7296425   6.7304832   6.7818684   6.7892003
          709         710         711         712         713         714
    1   6.8314560   6.8780491   6.9082788   6.9169213   6.9252036   6.9385430
          715         716         717         718         719         720
    1   6.9517718   6.9675437   7.0199394   7.0566760   7.1266016   7.1542345
          721         722         723         724         725         726
    1   7.1693867   7.1700507   7.2342893   7.3247032   7.3973818   7.4081835
          727         728         729         730         731         732
    1   7.4787030   7.4987047   7.5607126  22.4048103  22.5622743  22.7934328
          733         734         735         736         737         738
    1  22.8141279  22.8391613  22.8671843  22.9200275  22.9866585  23.0101129
          739         740         741         742         743         744
    1  23.0541271  23.1555166  23.2025785  23.3345639  23.5449902  23.7004721
          745         746         747         748         749         750
    1  44.0203490  44.1108752  44.1431896  44.1594826  44.2365974  44.6568300
 SCF time:   CPU 5089.90s  wall 432.00s 
 DFT Correlation          Energy =  -6.08962806672376
 DFT Exchange             Energy = -93.86093173643999
 HF Exchange              Energy = -36.49093746358733
 One-Electron             Energy = -4507.64369221089237
 SCRF wf-dependent energy Energy =  -0.99282776781843
 Total Coulomb            Energy = 2052.51967561006131
 Nuclear repulsion Energy = 1563.64581857358053

************** Final PCM Free Energy Summary **************
 G_electrostatic  =      -0.05382008 hartree =     -33.77261280 kcal/mol
 G_cavitation     =       0.00000000 hartree =       0.00000000 kcal/mol
 G_dispersion     =       0.00000000 hartree =       0.00000000 kcal/mol
 G_repulsion      =       0.00000000 hartree =       0.00000000 kcal/mol
 --------------------------------------------------
 Non-electrostatic Free Energy =       0.00000000 hartree =       0.00000000 kcal/mol
 Total                         =      -0.05382008 hartree =     -33.77261280 kcal/mol
 --------------------------------------------------
 SCF Energy (H0 + V/2)                       =   -1028.91252306 
 Solute Internal Energy (H0)                 =   -1028.85870298 
 Total Free Energy (H0 + V/2 + non-elec)     =   -1028.91252306 hartree
                                             = -645652.35620341 kcal/mol
***********************************************************

 SCF   energy = -1028.91252306
 Total energy = -1028.91252306
 MAX_CIS_SUBSPACE fits in available memory
 Direct TDDFT/TDA calculation will be performed
 Exchange:     0.1900 Hartree-Fock + 0.3500 B88 + 0.4600 muB88 + LR-HF
 Correlation:  0.1900 VWN5 + 0.8100 LYP
 Using SG-1 standard quadrature grid
 Triplet excitation energies requested
 Singlet excitation energies requested
 Adding PCM contribution to the XC response (LR-PCM)
 Optical dielectric constant (eps_inf) =  1.78
 CIS energy converged when residual is below 10e- 6
 ---------------------------------------------------
 Iter    Rts Conv    Rts Left    Ttl Dev     Max Dev
 ---------------------------------------------------
   1         0           7      0.000995    0.000154
   2         0           7      0.000417    0.000085
   3         0           7      0.000215    0.000084
   4         0           7      0.000119    0.000046
   5         1           6      0.000104    0.000059
   6         4           3      0.000082    0.000059
   7         4           3      0.000040    0.000029
   8         4           3      0.000017    0.000012
   9         6           1      0.000009    0.000005
  10         6           1      0.000004    0.000002
  11         7           0      0.000002    0.000001    Roots Converged
 ---------------------------------------------------
 Triplets done: starting singlet calculation
 ---------------------------------------------------
 Iter    Rts Conv    Rts Left    Ttl Dev     Max Dev
 ---------------------------------------------------
  12         0           7      0.002195    0.000557
  13         0           7      0.000712    0.000154
  14         0           7      0.000328    0.000073
  15         0           7      0.000201    0.000051
  16         0           7      0.000096    0.000036
  17         1           6      0.000058    0.000024
  18         3           4      0.000032    0.000014
  19         5           2      0.000017    0.000008
  20         5           2      0.000008    0.000003
  21         6           1      0.000005    0.000001
  22         7           0      0.000004    0.000001    Roots Converged
 ---------------------------------------------------
 
 ---------------------------------------------------
         TDDFT/TDA Excitation Energies              
 ---------------------------------------------------

 Excited state   1: excitation energy (eV) =       1.6100
 Total energy for state   1:                 -1028.85335759 au
    Multiplicity: Triplet
    Trans. Mom.:  0.0000 X   0.0000 Y   0.0000 Z
    Strength   :     0.0000000000
    D(   69) --> V(    1) amplitude = -0.1072
    D(   73) --> V(    1) amplitude =  0.1388
    D(   73) --> V(    2) amplitude = -0.0833
    D(   74) --> V(    1) amplitude =  0.9631

 Excited state   2: excitation energy (eV) =       2.7826
 Total energy for state   2:                 -1028.81026425 au
    Multiplicity: Singlet
    Trans. Mom.: -0.0648 X   0.6121 Y   3.3685 Z
    Strength   :     0.7993859671
    D(   72) --> V(    1) amplitude = -0.1464
    D(   73) --> V(    1) amplitude =  0.1381
    D(   74) --> V(    1) amplitude =  0.9601

 Excited state   3: excitation energy (eV) =       2.9654
 Total energy for state   3:                 -1028.80354524 au
    Multiplicity: Triplet
    Trans. Mom.:  0.0000 X   0.0000 Y   0.0000 Z
    Strength   :     0.0000000000
    D(   68) --> V(    1) amplitude = -0.0801
    D(   69) --> V(    1) amplitude =  0.0840
    D(   70) --> V(    7) amplitude =  0.0746
    D(   72) --> V(    1) amplitude = -0.4491
    D(   72) --> V(    2) amplitude =  0.1208
    D(   72) --> V(    7) amplitude = -0.1317
    D(   73) --> V(    1) amplitude =  0.7351
    D(   73) --> V(    7) amplitude = -0.0920
    D(   74) --> V(    1) amplitude = -0.0753
    D(   74) --> V(    2) amplitude = -0.3810

 Excited state   4: excitation energy (eV) =       3.1434
 Total energy for state   4:                 -1028.79700451 au
    Multiplicity: Triplet
    Trans. Mom.:  0.0000 X   0.0000 Y   0.0000 Z
    Strength   :     0.0000000000
    D(   66) --> V(    1) amplitude = -0.0728
    D(   68) --> V(    1) amplitude =  0.0743
    D(   69) --> V(    1) amplitude =  0.1579
    D(   70) --> V(    1) amplitude = -0.3557
    D(   72) --> V(    1) amplitude =  0.7131
    D(   72) --> V(    7) amplitude =  0.1590
    D(   72) --> V(   11) amplitude = -0.0787
    D(   73) --> V(    1) amplitude =  0.2217
    D(   73) --> V(    2) amplitude =  0.0997
    D(   73) --> V(    7) amplitude = -0.1525
    D(   74) --> V(    2) amplitude = -0.3890
    D(   74) --> V(    7) amplitude =  0.0730

 Excited state   5: excitation energy (eV) =       3.6442
 Total energy for state   5:                 -1028.77859957 au
    Multiplicity: Triplet
    Trans. Mom.:  0.0000 X   0.0000 Y   0.0000 Z
    Strength   :     0.0000000000
    D(   69) --> V(    1) amplitude = -0.2628
    D(   70) --> V(    1) amplitude =  0.3487
    D(   70) --> V(    2) amplitude =  0.0740
    D(   72) --> V(    1) amplitude =  0.2893
    D(   72) --> V(    2) amplitude =  0.0982
    D(   73) --> V(    1) amplitude =  0.4446
    D(   73) --> V(    2) amplitude =  0.3643
    D(   74) --> V(    1) amplitude = -0.0775
    D(   74) --> V(    2) amplitude =  0.4447
    D(   74) --> V(    3) amplitude =  0.1045
    D(   74) --> V(    4) amplitude =  0.1329
    D(   74) --> V(    7) amplitude =  0.1977
    D(   74) --> V(   11) amplitude =  0.1625

 Excited state   6: excitation energy (eV) =       3.7594
 Total energy for state   6:                 -1028.77436652 au
    Multiplicity: Singlet
    Trans. Mom.:  0.0200 X  -0.3048 Y  -1.6734 Z
    Strength   :     0.2665105111
    D(   69) --> V(    1) amplitude =  0.1422
    D(   72) --> V(    1) amplitude = -0.5630
    D(   72) --> V(    2) amplitude =  0.1126
    D(   73) --> V(    1) amplitude =  0.7618
    D(   74) --> V(    1) amplitude = -0.1890
    D(   74) --> V(    2) amplitude = -0.1079

 Excited state   7: excitation energy (eV) =       3.7677
 Total energy for state   7:                 -1028.77406391 au
    Multiplicity: Triplet
    Trans. Mom.:  0.0000 X   0.0000 Y   0.0000 Z
    Strength   :     0.0000000000
    D(   70) --> V(    1) amplitude =  0.1019
    D(   71) --> V(    1) amplitude =  0.8783
    D(   71) --> V(    2) amplitude = -0.3421
    D(   71) --> V(   10) amplitude =  0.0769
    D(   71) --> V(   11) amplitude = -0.2310
    D(   71) --> V(   28) amplitude =  0.1169

 Excited state   8: excitation energy (eV) =       3.9218
 Total energy for state   8:                 -1028.76839842 au
    Multiplicity: Triplet
    Trans. Mom.:  0.0000 X   0.0000 Y   0.0000 Z
    Strength   :     0.0000000000
    D(   66) --> V(    1) amplitude =  0.0765
    D(   69) --> V(    2) amplitude =  0.1093
    D(   70) --> V(    1) amplitude =  0.6813
    D(   70) --> V(    2) amplitude =  0.2710
    D(   70) --> V(    3) amplitude = -0.1056
    D(   70) --> V(    4) amplitude = -0.1641
    D(   71) --> V(    1) amplitude = -0.0760
    D(   72) --> V(    1) amplitude =  0.2058
    D(   72) --> V(    2) amplitude =  0.1260
    D(   72) --> V(    4) amplitude = -0.0901
    D(   73) --> V(    2) amplitude = -0.1042
    D(   73) --> V(    4) amplitude = -0.0913
    D(   74) --> V(    2) amplitude = -0.3824
    D(   74) --> V(    3) amplitude = -0.1057
    D(   74) --> V(    4) amplitude = -0.1414
    D(   74) --> V(    7) amplitude = -0.2249
    D(   74) --> V(   11) amplitude = -0.0914

 Excited state   9: excitation energy (eV) =       4.0252
 Total energy for state   9:                 -1028.76460124 au
    Multiplicity: Singlet
    Trans. Mom.: -0.0060 X   0.0219 Y   0.0319 Z
    Strength   :     0.0001512938
    D(   70) --> V(    1) amplitude =  0.1280
    D(   71) --> V(    1) amplitude =  0.9056
    D(   71) --> V(    2) amplitude = -0.3048
    D(   71) --> V(   11) amplitude = -0.1956
    D(   71) --> V(   28) amplitude =  0.0913

 Excited state  10: excitation energy (eV) =       4.0899
 Total energy for state  10:                 -1028.76222366 au
    Multiplicity: Triplet
    Trans. Mom.:  0.0000 X   0.0000 Y   0.0000 Z
    Strength   :     0.0000000000
    D(   68) --> V(    1) amplitude =  0.1306
    D(   69) --> V(    1) amplitude =  0.6177
    D(   69) --> V(    2) amplitude = -0.0992
    D(   70) --> V(    1) amplitude = -0.0868
    D(   70) --> V(    2) amplitude =  0.2044
    D(   70) --> V(    3) amplitude = -0.1345
    D(   70) --> V(    4) amplitude = -0.2017
    D(   70) --> V(   11) amplitude = -0.0726
    D(   72) --> V(    3) amplitude = -0.0713
    D(   72) --> V(    4) amplitude = -0.1012
    D(   72) --> V(    7) amplitude =  0.0915
    D(   73) --> V(    1) amplitude =  0.2436
    D(   73) --> V(    2) amplitude = -0.2608
    D(   73) --> V(    3) amplitude = -0.0952
    D(   73) --> V(    4) amplitude = -0.1257
    D(   73) --> V(    7) amplitude =  0.1176
    D(   73) --> V(   11) amplitude =  0.0984
    D(   74) --> V(    2) amplitude =  0.3959
    D(   74) --> V(    7) amplitude = -0.0966
    D(   74) --> V(   11) amplitude = -0.1728

 Excited state  11: excitation energy (eV) =       4.2356
 Total energy for state  11:                 -1028.75686811 au
    Multiplicity: Singlet
    Trans. Mom.: -0.0913 X   0.2646 Y  -0.3047 Z
    Strength   :     0.0177648725
    D(   70) --> V(    1) amplitude =  0.1810
    D(   70) --> V(    2) amplitude =  0.1060
    D(   70) --> V(    7) amplitude = -0.0898
    D(   72) --> V(    1) amplitude =  0.7054
    D(   73) --> V(    1) amplitude =  0.5472
    D(   73) --> V(    2) amplitude =  0.1797
    D(   73) --> V(    4) amplitude = -0.0782
    D(   74) --> V(    2) amplitude =  0.1857
    D(   74) --> V(    3) amplitude =  0.1214
    D(   74) --> V(    4) amplitude =  0.1693

 Excited state  12: excitation energy (eV) =       4.4951
 Total energy for state  12:                 -1028.74733282 au
    Multiplicity: Singlet
    Trans. Mom.: -0.0385 X  -0.3155 Y   0.5659 Z
    Strength   :     0.0463944223
    D(   69) --> V(    1) amplitude = -0.0849
    D(   70) --> V(    1) amplitude =  0.8199
    D(   70) --> V(    2) amplitude =  0.1126
    D(   71) --> V(    1) amplitude = -0.1097
    D(   72) --> V(    2) amplitude =  0.1255
    D(   73) --> V(    1) amplitude = -0.1390
    D(   73) --> V(    3) amplitude = -0.0985
    D(   73) --> V(    4) amplitude = -0.1351
    D(   74) --> V(    2) amplitude = -0.3835
    D(   74) --> V(    3) amplitude =  0.0723
    D(   74) --> V(    4) amplitude =  0.0932
    D(   74) --> V(    7) amplitude = -0.1796

 Excited state  13: excitation energy (eV) =       4.9918
 Total energy for state  13:                 -1028.72907671 au
    Multiplicity: Singlet
    Trans. Mom.:  0.2025 X  -1.7598 Y   0.1086 Z
    Strength   :     0.3851795888
    D(   68) --> V(    1) amplitude =  0.0775
    D(   69) --> V(    1) amplitude =  0.2187
    D(   70) --> V(    1) amplitude =  0.2672
    D(   70) --> V(    7) amplitude = -0.0722
    D(   72) --> V(    1) amplitude = -0.2842
    D(   72) --> V(    2) amplitude =  0.0949
    D(   72) --> V(    7) amplitude =  0.1418
    D(   73) --> V(    1) amplitude = -0.1499
    D(   73) --> V(    4) amplitude = -0.0926
    D(   74) --> V(    2) amplitude =  0.7037
    D(   74) --> V(    3) amplitude =  0.1997
    D(   74) --> V(    4) amplitude =  0.2853
    D(   74) --> V(    7) amplitude =  0.2115

 Excited state  14: excitation energy (eV) =       5.1962
 Total energy for state  14:                 -1028.72156648 au
    Multiplicity: Singlet
    Trans. Mom.: -0.0144 X   0.9294 Y  -0.2679 Z
    Strength   :     0.1191191658
    D(   69) --> V(    1) amplitude =  0.1105
    D(   70) --> V(    1) amplitude = -0.2619
    D(   70) --> V(    2) amplitude =  0.0930
    D(   70) --> V(    4) amplitude =  0.0823
    D(   70) --> V(    7) amplitude = -0.0805
    D(   73) --> V(    1) amplitude = -0.0991
    D(   73) --> V(    2) amplitude =  0.1709
    D(   73) --> V(    3) amplitude = -0.0710
    D(   73) --> V(    4) amplitude = -0.0939
    D(   73) --> V(    5) amplitude = -0.0801
    D(   74) --> V(    2) amplitude = -0.3421
    D(   74) --> V(    3) amplitude =  0.6926
    D(   74) --> V(    4) amplitude =  0.2684
    D(   74) --> V(    5) amplitude = -0.1875
    D(   74) --> V(    7) amplitude =  0.1112
    D(   74) --> V(    8) amplitude =  0.1624
    D(   74) --> V(   10) amplitude = -0.1133
    D(   74) --> V(   12) amplitude =  0.0946
 
 ---------------------------------------------------

 Direct TDDFT calculation will be performed
 Exchange:     0.1900 Hartree-Fock + 0.3500 B88 + 0.4600 muB88 + LR-HF
 Correlation:  0.1900 VWN5 + 0.8100 LYP
 Using SG-1 standard quadrature grid
 ---------------------------------------------------
 Iter    Rts Conv    Rts Left    Ttl Dev     Max Dev
 ---------------------------------------------------
   1         0           7      0.001103    0.000177
   2         0           7      0.000335    0.000077
   3         0           7      0.000199    0.000048
   4         0           7      0.000107    0.000035
   5         0           7      0.000084    0.000030
   6         0           7      0.000042    0.000016
   7         1           6      0.000026    0.000007
   8         4           3      0.000008    0.000002
[...]
      XZZZ      85.6577   YZZZ   -1204.6421   ZZZZ   -7728.4854
    5th-Order Moments (Debye-Ang^4)
       500     -11.2058    410      17.7174    320      19.1179
       230       1.7122    140    -215.8195    050    1601.7006
       401     -56.2440    311    -322.9547    221     248.9081
       131    -299.1633    041    2620.9741    302    -197.1578
       212     567.0548    122    -232.5457    032    3190.5052
       203    -622.5492    113    -398.8855    023    2848.5282
       104    -983.1182    014    6653.8037    005  -11403.1177
 -----------------------------------------------------------------
 -----------------------------------------------------------------
                 RPA Excited-State Multipoles, State    4   
                  LMN = < X^L Y^M Z^N >
 -----------------------------------------------------------------
    Charge (ESU x 10^10)
                -0.0000
    Dipole Moment (Debye)
         X      -1.5083      Y       6.8891      Z       0.8055
       Tot       7.0981
    Quadrupole Moments (Debye-Ang)
        XX    -123.7895     XY       4.9140     YY    -116.0636
        XZ       1.2801     YZ     -47.9178     ZZ    -117.8600
    Octopole Moments (Debye-Ang^2)
       XXX      -5.3385    XXY      -3.8784    XYY     -19.1704
       YYY      97.0317    XXZ      -1.1231    XYZ       2.6828
       YYZ     120.3162    XZZ     -21.4943    YZZ     131.4611
       ZZZ    -113.9339
    Hexadecapole Moments (Debye-Ang^3)
      XXXX    -169.3990   XXXY       9.4252   XXYY    -357.5919
      XYYY      41.1174   YYYY   -1764.3485   XXXZ      65.8170
      XXYZ     -31.0207   XYYZ      52.5671   YYYZ    -527.2451
      XXZZ   -1421.8958   XYZZ      89.6796   YYZZ   -1948.2157
      XZZZ      73.0909   YZZZ   -1121.9548   ZZZZ   -7476.2072
    5th-Order Moments (Debye-Ang^4)
       500     -11.8679    410      19.3843    320      19.3486
       230       2.6067    140    -209.2723    050    1559.2817
       401     -58.8937    311    -321.5943    221     242.9640
       131    -287.2251    041    2492.5221    302    -194.6276
       212     560.4896    122    -215.9130    032    3030.3636
       203    -665.6239    113    -372.0222    023    2566.6053
       104    -932.3215    014    6248.6909    005  -13134.2953
 -----------------------------------------------------------------
 -----------------------------------------------------------------
                 RPA Excited-State Multipoles, State    5   
                  LMN = < X^L Y^M Z^N >
 -----------------------------------------------------------------
    Charge (ESU x 10^10)
                -0.0000
    Dipole Moment (Debye)
         X      -1.8180      Y       6.0027      Z       8.9816
       Tot      10.9548
    Quadrupole Moments (Debye-Ang)
        XX    -123.8320     XY       5.4124     YY    -113.9242
        XZ       0.7770     YZ     -52.8926     ZZ    -131.9768
    Octopole Moments (Debye-Ang^2)
       XXX      -5.8120    XXY      -4.2105    XYY     -20.0715
       YYY      93.3715    XXZ       4.0208    XYZ       4.2742
       YYZ     135.8837    XZZ     -27.7074    YZZ     119.1503
       ZZZ      34.2562
    Hexadecapole Moments (Debye-Ang^3)
      XXXX    -169.4961   XXXY      10.1570   XXYY    -356.0874
      XYYY      43.7988   YYYY   -1757.0767   XXXZ      65.3918
      XXYZ     -34.2315   XYYZ      50.0518   YYYZ    -552.8271
      XXZZ   -1431.7901   XYZZ      98.2655   YYZZ   -1938.8331
      XZZZ      66.3319   YZZZ   -1218.6030   ZZZZ   -7880.5340
    5th-Order Moments (Debye-Ang^4)
       500     -13.1313    410      19.3213    320      18.0077
       230       2.0769    140    -216.9825    050    1556.4503
       401     -50.2885    311    -319.2568    221     251.2512
       131    -281.6740    041    2586.3709    302    -205.3286
       212     555.2537    122    -234.4481    032    2977.3714
       203    -571.1063    113    -349.6519    023    2864.6470
       104   -1048.5497    014    6052.7911    005  -10190.6569
 -----------------------------------------------------------------
 -----------------------------------------------------------------
                 RPA Excited-State Multipoles, State    6   
                  LMN = < X^L Y^M Z^N >
 -----------------------------------------------------------------
    Charge (ESU x 10^10)
                -0.0000
    Dipole Moment (Debye)
         X      -1.3528      Y       5.3203      Z       2.4319
       Tot       6.0042
    Quadrupole Moments (Debye-Ang)
        XX    -124.0438     XY       5.4210     YY    -121.9153
        XZ       1.6012     YZ     -50.3807     ZZ    -112.6451
    Octopole Moments (Debye-Ang^2)
       XXX      -4.9530    XXY      -5.3354    XYY     -19.8841
       YYY      97.8807    XXZ       0.1649    XYZ       1.1289
       YYZ     139.8241    XZZ     -23.1238    YZZ     156.0528
       ZZZ     -78.0389
    Hexadecapole Moments (Debye-Ang^3)
      XXXX    -170.3157   XXXY      10.2831   XXYY    -361.4066
      XYYY      45.9699   YYYY   -1824.0280   XXXZ      65.9822
      XXYZ     -30.6604   XYYZ      57.7046   YYYZ    -573.3968
      XXZZ   -1421.9984   XYZZ      98.2746   YYZZ   -2018.2068
      XZZZ      85.7845   YZZZ   -1259.9292   ZZZZ   -7365.5099
    5th-Order Moments (Debye-Ang^4)
       500     -10.5912    410      16.2592    320      19.1219
       230      -0.2060    140    -219.5417    050    1616.8632
       401     -55.7354    311    -323.5570    221     255.1506
       131    -304.1371    041    2694.2614    302    -196.0206
       212     569.5590    122    -241.0124    032    3285.4724
       203    -642.6453    113    -406.6951    023    2917.7354
       104    -979.0437    014    6870.3829    005  -12255.5898
 -----------------------------------------------------------------
 -----------------------------------------------------------------
                 RPA Excited-State Multipoles, State    7   
                  LMN = < X^L Y^M Z^N >
 -----------------------------------------------------------------
    Charge (ESU x 10^10)
                -0.0000
    Dipole Moment (Debye)
         X      -0.8352      Y      -0.5786      Z      -2.5766
       Tot       2.7697
    Quadrupole Moments (Debye-Ang)
        XX    -125.1913     XY       3.0595     YY     -99.5501
        XZ      -1.2662     YZ     -17.4212     ZZ    -105.7264
    Octopole Moments (Debye-Ang^2)
       XXX      -5.4152    XXY      -4.9240    XYY     -12.2308
       YYY      28.0114    XXZ       2.9060    XYZ      11.8836
       YYZ      44.0079    XZZ      -8.8730    YZZ       6.7052
       ZZZ    -215.5944
    Hexadecapole Moments (Debye-Ang^3)
      XXXX    -172.3195   XXXY       9.6516   XXYY    -357.3140
      XYYY      21.4891   YYYY   -1581.8312   XXXZ      66.6969
      XXYZ     -27.2258   XYYZ      25.3453   YYYZ    -251.4447
      XXZZ   -1438.9220   XYZZ      51.0776   YYZZ   -1608.6449
      XZZZ      18.6142   YZZZ    -519.1152   ZZZZ   -7176.0712
    5th-Order Moments (Debye-Ang^4)
       500     -12.4603    410      19.2578    320      21.6811
       230      -9.8635    140    -140.8997    050     852.9108
       401     -49.3309    311    -319.8798    221     238.2542
       131    -201.4651    041    1689.5569    302    -195.5260
       212     549.1225    122     -92.8603    032    1875.1039
       203    -614.6605    113    -188.9719    023    1034.6425
       104    -657.4763    014    3638.8615    005  -16014.4758
 -----------------------------------------------------------------
 -----------------------------------------------------------------
                 RPA Excited-State Multipoles, State    8   
                  LMN = < X^L Y^M Z^N >
 -----------------------------------------------------------------
    Charge (ESU x 10^10)
                -0.0000
    Dipole Moment (Debye)
         X      -1.4308      Y       6.2506      Z       6.5181
       Tot       9.1434
    Quadrupole Moments (Debye-Ang)
        XX    -123.9968     XY       5.1574     YY    -112.4805
        XZ       1.4650     YZ     -43.5103     ZZ    -130.6393
    Octopole Moments (Debye-Ang^2)
       XXX      -5.4311    XXY      -3.4446    XYY     -18.2697
       YYY      87.2841    XXZ       3.9866    XYZ       5.5173
       YYZ     123.0261    XZZ     -21.5779    YZZ     121.7695
       ZZZ     -31.7069
    Hexadecapole Moments (Debye-Ang^3)
      XXXX    -169.9313   XXXY      10.2913   XXYY    -356.8378
      XYYY      40.2849   YYYY   -1739.4079   XXXZ      67.4469
      XXYZ     -31.0772   XYYZ      48.1404   YYYZ    -499.5487
      XXZZ   -1433.2710   XYZZ      92.4579   YYZZ   -1894.7822
      XZZZ      74.7577   YZZZ   -1037.2644   ZZZZ   -7893.6108
    5th-Order Moments (Debye-Ang^4)
       500     -11.9403    410      21.3625    320      19.4992
       230       3.8878    140    -200.5547    050    1461.5647
       401     -49.9870    311    -319.4572    221     250.1408
       131    -270.2444    041    2452.6888    302    -198.3553
       212     568.6660    122    -209.1385    032    2876.1687
       203    -587.6701    113    -331.7259    023    2590.1532
       104    -949.3941    014    5996.0596    005  -12031.4573
 -----------------------------------------------------------------
 -----------------------------------------------------------------
                 RPA Excited-State Multipoles, State    9   
                  LMN = < X^L Y^M Z^N >
 -----------------------------------------------------------------
    Charge (ESU x 10^10)
                -0.0000
    Dipole Moment (Debye)
         X      -1.7258      Y       8.1732      Z       7.9908
       Tot      11.5600
    Quadrupole Moments (Debye-Ang)
        XX    -123.8764     XY       4.9904     YY    -115.1961
        XZ       1.8236     YZ     -48.9828     ZZ    -139.3103
    Octopole Moments (Debye-Ang^2)
       XXX      -5.6915    XXY      -3.3770    XYY     -20.2883
       YYY     109.4623    XXZ       3.4060    XYZ       1.8537
       YYZ     137.1287    XZZ     -23.9416    YZZ     144.2583
       ZZZ      25.2771
    Hexadecapole Moments (Debye-Ang^3)
      XXXX    -169.7883   XXXY       9.7207   XXYY    -357.6769
      XYYY      41.4439   YYYY   -1763.5890   XXXZ      66.7652
      XXYZ     -31.7224   XYYZ      55.1188   YYYZ    -542.4823
      XXZZ   -1435.2608   XYZZ      94.9796   YYZZ   -2005.1796
      XZZZ      88.4361   YZZZ   -1164.9813   ZZZZ   -7964.5611
    5th-Order Moments (Debye-Ang^4)
       500     -12.8475    410      19.8160    320      17.8931
       230       7.8019    140    -221.2492    050    1700.8937
       401     -50.7521    311    -322.6194    221     252.8476
       131    -297.8117    041    2629.5021    302    -199.0564
       212     569.2045    122    -226.9978    032    3143.4607
       203    -579.6247    113    -389.8529    023    2874.3217
       104    -981.4285    014    6539.6124    005  -10260.5676
 -----------------------------------------------------------------
 -----------------------------------------------------------------
                 RPA Excited-State Multipoles, State   10   
                  LMN = < X^L Y^M Z^N >
 -----------------------------------------------------------------
    Charge (ESU x 10^10)
                -0.0000
    Dipole Moment (Debye)
         X      -0.6329      Y      -2.8133      Z      -5.6252
       Tot       6.3212
    Quadrupole Moments (Debye-Ang)
        XX    -125.5176     XY       2.4142     YY     -96.0459
        XZ      -2.0490     YZ      -9.2678     ZZ     -97.9156
    Octopole Moments (Debye-Ang^2)
       XXX      -5.3361    XXY      -5.6142    XYY     -10.3963
       YYY      11.2119    XXZ       2.3181    XYZ      13.6641
       YYZ      21.7608    XZZ      -5.5920    YZZ     -26.8933
       ZZZ    -273.4318
    Hexadecapole Moments (Debye-Ang^3)
      XXXX    -173.1223   XXXY       9.4091   XXYY    -357.5640
      XYYY      15.7145   YYYY   -1542.7109   XXXZ      66.4015
      XXYZ     -25.5211   XYYZ      18.8425   YYYZ    -182.9242
      XXZZ   -1440.2360   XYZZ      40.3366   YYZZ   -1528.7584
      XZZZ       6.1487   YZZZ    -370.7191   ZZZZ   -6974.3340
    5th-Order Moments (Debye-Ang^4)
       500     -12.5391    410      18.4298    320      22.4458
       230     -14.4240    140    -122.4986    050     697.0809
       401     -49.1568    311    -320.1094    221     235.0410
       131    -181.4473    041    1493.3887    302    -194.9011
       212     543.0140    122     -62.6905    032    1604.5308
       203    -623.8688    113    -157.0270    023     602.5621
       104    -597.5106    014    2992.4539    005  -17185.9748
 -----------------------------------------------------------------
 -----------------------------------------------------------------
                 RPA Excited-State Multipoles, State   11   
                  LMN = < X^L Y^M Z^N >
 -----------------------------------------------------------------
    Charge (ESU x 10^10)
                -0.0000
    Dipole Moment (Debye)
         X      -1.8634      Y       4.8103      Z      11.2482
       Tot      12.3747
    Quadrupole Moments (Debye-Ang)
        XX    -123.9328     XY       6.0845     YY    -115.7313
        XZ       0.3677     YZ     -54.6122     ZZ    -115.4891
    Octopole Moments (Debye-Ang^2)
       XXX      -5.7911    XXY      -5.0473    XYY     -20.5726
       YYY      87.6866    XXZ       5.5334    XYZ       5.3026
       YYZ     149.4663    XZZ     -28.7690    YZZ     115.5464
       ZZZ      36.0405
    Hexadecapole Moments (Debye-Ang^3)
      XXXX    -170.0291   XXXY      11.4335   XXYY    -357.9505
      XYYY      47.1646   YYYY   -1774.6331   XXXZ      64.8273
      XXYZ     -34.5793   XYYZ      48.8081   YYYZ    -568.9920
      XXZZ   -1422.7439   XYZZ     105.5046   YYZZ   -1919.5175
      XZZZ      58.2038   YZZZ   -1262.1186   ZZZZ   -7554.3367
    5th-Order Moments (Debye-Ang^4)
       500     -12.8229    410      17.6974    320      17.6131
       230      -2.3843    140    -220.3703    050    1508.8075
       401     -47.3101    311    -317.8945    221     261.1467
       131    -278.4844    041    2672.1195    302    -205.9310
       212     552.2147    122    -247.3865    032    2972.6731
       203    -570.3425    113    -331.4570    023    3019.2514
       104   -1067.2858    014    6007.9858    005  -10517.4588
 -----------------------------------------------------------------
 -----------------------------------------------------------------
                 RPA Excited-State Multipoles, State   12   
                  LMN = < X^L Y^M Z^N >
 -----------------------------------------------------------------
    Charge (ESU x 10^10)
                -0.0000
    Dipole Moment (Debye)
         X      -1.5026      Y       6.2549      Z      10.3527
       Tot      12.1885
    Quadrupole Moments (Debye-Ang)
        XX    -123.9182     XY       5.2971     YY    -115.8179
        XZ       2.0112     YZ     -45.0972     ZZ    -123.6347
    Octopole Moments (Debye-Ang^2)
       XXX      -5.2772    XXY      -4.2013    XYY     -19.0861
       YYY      94.0627    XXZ       5.2548    XYZ       3.9121
       YYZ     133.0514    XZZ     -20.5196    YZZ     141.5904
       ZZZ      46.3154
    Hexadecapole Moments (Debye-Ang^3)
      XXXX    -170.0289   XXXY      10.3170   XXYY    -358.1737
      XYYY      42.2612   YYYY   -1770.9799   XXXZ      67.6244
      XXYZ     -29.1361   XYYZ      52.8389   YYYZ    -519.3181
      XXZZ   -1427.1029   XYZZ      95.3404   YYZZ   -1942.9267
      XZZZ      92.4774   YZZZ   -1081.2926   ZZZZ   -7692.5492
    5th-Order Moments (Debye-Ang^4)
       500     -11.3659    410      19.1466    320      19.8504
       230       1.0709    140    -211.0966    050    1551.3715
       401     -47.3586    311    -319.4671    221     251.5843
       131    -286.6008    041    2551.5803    302    -192.3927
       212     570.5059    122    -216.2940    032    3042.3422
       203    -559.2655    113    -355.3231    023    2781.9706
       104    -913.2282    014    6497.4083    005   -9933.9718
 -----------------------------------------------------------------
 -----------------------------------------------------------------
                 RPA Excited-State Multipoles, State   13   
                  LMN = < X^L Y^M Z^N >
 -----------------------------------------------------------------
    Charge (ESU x 10^10)
                -0.0000
    Dipole Moment (Debye)
         X      -1.5615      Y       7.5125      Z       3.7079
       Tot       8.5220
    Quadrupole Moments (Debye-Ang)
        XX    -124.3699     XY       4.7119     YY    -115.7312
        XZ       1.5959     YZ     -47.2402     ZZ    -126.6543
    Octopole Moments (Debye-Ang^2)
       XXX      -5.7031    XXY      -3.3485    XYY     -18.9703
       YYY      96.8649    XXZ       1.6515    XYZ       2.7334
       YYZ     118.5850    XZZ     -21.1566    YZZ     134.2458
       ZZZ     -46.1940
    Hexadecapole Moments (Debye-Ang^3)
      XXXX    -172.1098   XXXY       9.4706   XXYY    -360.1126
      XYYY      39.7056   YYYY   -1769.2052   XXXZ      66.9625
      XXYZ     -32.7288   XYYZ      52.5414   YYYZ    -519.5477
      XXZZ   -1434.9127   XYZZ      87.0431   YYZZ   -1955.5143
      XZZZ      80.7700   YZZZ   -1105.8167   ZZZZ   -7678.1126
    5th-Order Moments (Debye-Ang^4)
       500     -14.2056    410      21.4228    320      17.8396
       230       6.8016    140    -208.7518    050    1571.2234
       401     -50.6361    311    -323.6329    221     249.6051
       131    -286.4563    041    2489.0963    302    -198.3644
       212     572.7539    122    -208.9850    032    3028.5052
       203    -602.4645    113    -370.8908    023    2568.6908
       104    -924.4973    014    6306.5277    005  -11321.8989
 -----------------------------------------------------------------
 -----------------------------------------------------------------
                 RPA Excited-State Multipoles, State   14   
                  LMN = < X^L Y^M Z^N >
 -----------------------------------------------------------------
    Charge (ESU x 10^10)
                -0.0000
    Dipole Moment (Debye)
         X      -1.2814      Y       8.0785      Z       2.6162
       Tot       8.5877
    Quadrupole Moments (Debye-Ang)
        XX    -126.6767     XY       3.3607     YY    -115.1689
        XZ       1.5357     YZ     -49.8086     ZZ    -140.2427
    Octopole Moments (Debye-Ang^2)
       XXX      -3.0172    XXY      -2.8321    XYY     -18.9193
       YYY     102.4577    XXZ      -1.5579    XYZ       2.1840
       YYZ     116.5275    XZZ     -23.5579    YZZ     111.6244
       ZZZ     -23.3615
    Hexadecapole Moments (Debye-Ang^3)
      XXXX    -189.8471   XXXY       2.0208   XXYY    -364.9607
      XYYY      31.1747   YYYY   -1766.7455   XXXZ      69.2260
      XXYZ     -32.0908   XYYZ      52.8487   YYYZ    -530.7956
      XXZZ   -1456.8371   XYZZ      81.0447   YYZZ   -1994.8742
      XZZZ      83.5188   YZZZ   -1183.9999   ZZZZ   -7923.7312
    5th-Order Moments (Debye-Ang^4)
       500      11.9054    410      23.7764    320      23.5500
       230       8.4425    140    -210.5879    050    1606.3334
       401     -65.5179    311    -326.0804    221     236.1898
       131    -282.4430    041    2507.3006    302    -192.7510
       212     554.7617    122    -210.1325    032    2958.1882
       203    -652.4332    113    -377.8974    023    2558.9992
       104    -969.9200    014    5729.7204    005  -10507.1537
 -----------------------------------------------------------------
 Total job time:  3904.13s(wall), 53914.16s(cpu) 
 Fri Jan 31 03:36:28 2025

        *************************************************************
        *                                                           *
        *  Thank you very much for using Q-Chem.  Have a nice day.  *
        *                                                           *
        *************************************************************


