
Running Job 1 of 1 Cyanidin_Q2_tddft_full.in
qchem Cyanidin_Q2_tddft_full.in_3385065.0 /data/brussel/103/vsc10365/activedata/TDDFTAnthocyanidines/qchem3385065/ 1
/apps/brussel/RL8/skylake/software/Q-Chem/6.2.0/exe/qcprog.exe_s Cyanidin_Q2_tddft_full.in_3385065.0 /data/brussel/103/vsc10365/activedata/TDDFTAnthocyanidines/qchem3385065/
                  Welcome to Q-Chem
     A Quantum Leap Into The Future Of Chemistry


 Q-Chem 6.2, Q-Chem, Inc., Pleasanton, CA (2024)

 License issued to: SRG Prof. Dr. Frank De Proft, Vrije Universiteit Brussel

 E. Epifanovsky,  A. T. B. Gilbert,  Xintian Feng,  Joonho Lee,  Yuezhi Mao,  
 N. Mardirossian,  P. Pokhilko,  A. White,  M. Wormit,  M. P. Coons,  
 A. L. Dempwolff,  Zhengting Gan,  D. Hait,  P. R. Horn,  L. D. Jacobson,  
 I. Kaliman,  J. Kussmann,  A. W. Lange,  Ka Un Lao,  D. S. Levine,  Jie Liu,  
 S. C. McKenzie,  A. F. Morrison,  K. D. Nanda,  F. Plasser,  D. R. Rehn,  
 M. L. Vidal,  Zhi-Qiang You,  Ying Zhu,  Huseyin Aksu,  B. Alam,  
 B. Albrecht,  A. Aldossary,  E. Alguire,  J. H. Andersen,  
 J. E. Arias-Martinez,  V. Athavale,  D. Barton,  K. Begam,  A. Behn,  
 N. Bellonzi,  Y. A. Bernard,  E. J. Berquist,  H. Burton,  A. Carreras,  
 K. Carter-Fenk,  Mathew Chow,  Romit Chakraborty,  Chandrima Chakravarty,  
 Junhan Chen,  A. D. Chien,  K. D. Closser,  V. Cofer-Shabica,  L. Cunha,  
 S. Dasgupta,  Jia Deng,  Joseph Dickinson,  M. de Wergifosse,  
 M. Diedenhofen,  Hainam Do,  Wenjie Dou,  S. Ehlert,  Po-Tung Fang,  
 S. Fatehi,  Qingguo Feng,  Jonathan Fetherolf,  T. Friedhoff,  
 Thomas Froitzheim,  Sarai Folkestad,  B. Ganoe,  J. Gayvert,  Qinghui Ge,  
 G. Gidofalvi,  M. Gimferrer,  M. Goldey,  Montgomery Gray,  J. Gomes,  
 C. Gonzalez-Espinoza,  S. Gulania,  A. Gunina,  J. A. Gyamfi,  
 M. W. D. Hanson-Heine,  P. H. P. Harbach,  A. W. Hauser,  M. F. Herbst,  
 M. Hernandez Vera,  M. Hodecker,  Z. C. Holden,  S. Houck,  Xunkun Huang,  
 Kerwin Hui,  B. C. Huynh,  K. Ikeda,  M. Ivanov,  Nayanthara K. Jayadev,  
 Hyunjun Ji,  Zuxin Jin,  Hanjie Jiang,  Subrata Jana,  B. Kaduk,  
 S. Kaehler,  R. Kang,  K. Khistyaev,  Jaehoon Kim,  Yongbin Kim,  
 P. Klunzinger,  Z. Koczor-Benda,  Joong Hoon Koh,  D. Kosenkov,  
 Saikiran Kotaru,  L. Koulias,  T. Kowalczyk,  C. M. Krauter,  K. Kue,  
 A. Kunitsa,  T. Kus,  A. Landau,  K. V. Lawler,  D. Lefrancois,  S. Lehtola,  
 Rain Li,  Shaozhi Li,  Tao E. Li,  Yi-Pei Li,  Jiashu Liang,  M. Liebenthal,  
 Hung-Hsuan Lin,  You-Sheng Lin,  Fenglai Liu,  Kuan-Yu Liu,  Xiao Liu,  
 M. Loipersberger,  A. Luenser,  C. Malbon,  Aniket Mandal,  Manisha,  
 A. Manjanath,  P. Manohar,  E. Mansoor,  S. F. Manzer,  Shan-Ping Mao,  
 A. V. Marenich,  T. Markovich,  S. Mason,  F. Matz,  S. A. Maurer,  
 Samuel May,  Alexandra McIsaac,  P. F. McLaughlin,  M. F. S. J. Menger,  
 J.-M. Mewes,  S. A. Mewes,  P. Morgante,  Mohammad Mostafanejad,  
 Madhubani Mukherjee,  J. W. Mullinax,  Quyen Nguyen,  Avik Kumar Ojha,  
 K. J. Oosterbaan,  Eno Paenurk,  Xiaoliang Pan,  G. Paran,  V. Parravicini,  
 Alexander C. Paul,  Suranjan K. Paul,  F. Pavosevic,  Zheng Pei,  S. Prager,  
 E. I. Proynov,  E. Ramos,  B. Rana,  A. E. Rask,  A. Rettig,  R. M. Richard,  
 F. Rob,  E. Rossomme,  T. Scheele,  M. Scheurer,  M. Schneider,  
 P. E. Schneider,  Tim K. Schramm,  N. Sergueev,  S. M. Sharada,  
 Hengyuan Shen,  W. Skomorowski,  D. W. Small,  C. J. Stein,  
 Alistair J. Sterling,  Yingli Su,  Yu-Chuan Su,  E. J. Sundstrom,  
 J. Talbot,  Zhen Tao,  J. Thirman,  Hung-Yi Tsai,  T. Tsuchimochi,  
 N. M. Tubman,  C. Utku,  S. P. Veccham,  O. Vydrov,  Rahel Weiss,  
 J. Wenzel,  Jonathan Wong,  J. Witte,  H. Wu,  Yanze Wu,  A. Yamada,  
 Chou-Hsun Yang,  Kun Yao,  S. Yeganeh,  S. R. Yost,  Qi Yu,  A. Zech,  
 F. Zeller,  Chongxiao Zhao,  Igor Ying Zhang,  Xing Zhang,  Yu Zhang,  
 D. Zuev,  A. Aspuru-Guzik,  A. T. Bell,  N. A. Besley,  K. B. Bravaya,  
 B. R. Brooks,  D. Casanova,  Jeng-Da Chai,  Hsing-Ta Chen,  S. Coriani,  
 C. J. Cramer,  A. E. DePrince, III,  R. A. DiStasio Jr.,  A. Dreuw,  
 B. D. Dunietz,  T. R. Furlani,  W. A. Goddard III,  S. Grimme,  
 S. Hammes-Schiffer,  T. Head-Gordon,  W. J. Hehre,  Chao-Ping Hsu,  
 T.-C. Jagau,  Yousung Jung,  A. Klamt,  Jing Kong,  D. S. Lambrecht,  
 Xiangyuan Li,  WanZhen Liang,  N. J. Mayhall,  C. W. McCurdy,  J. B. Neaton,  
 T. Neudecker,  C. Ochsenfeld,  J. A. Parkhill,  R. Peverati,  
 V. A. Rassolov,  Haisheng Ren,  Yihan Shao,  L. V. Slipchenko,  
 R. P. Steele,  J. E. Subotnik,  A. J. W. Thom,  A. Tkatchenko,  
 D. G. Truhlar,  T. Van Voorhis,  Fan Wang,  T. A. Wesolowski,  K. B. Whaley,  
 H. L. Woodcock III,  P. M. Zimmerman,  S. Faraji,  P. M. W. Gill,  
 M. Head-Gordon,  J. M. Herbert,  A. I. Krylov

 Contributors to earlier versions of Q-Chem not listed above: 
 R. D. Adamson,  B. Austin,  R. Baer,  J. Baker,  G. J. O. Beran,  
 K. Brandhorst,  S. T. Brown,  E. F. C. Byrd,  Arup K. Chakraborty,  
 G. K. L. Chan,  Chun-Min Chang,  Yunqing Chen,  C.-L. Cheng,  
 Siu Hung Chien,  D. M. Chipman,  D. L. Crittenden,  H. Dachsel,  
 R. J. Doerksen,  A. D. Dutoi,  R. G. Edgar,  J. Fosso-Tande,  
 L. Fusti-Molnar,  D. Ghosh,  A. Ghysels,  A. Golubeva-Zadorozhnaya,  
 J. Gonthier,  M. S. Gordon,  S. R. Gwaltney,  G. Hawkins,  J. E. Herr,  
 A. Heyden,  S. Hirata,  E. G. Hohenstein,  G. Kedziora,  F. J. Keil,  
 C. Kelley,  Jihan Kim,  R. A. King,  R. Z. Khaliullin,  P. P. Korambath,  
 W. Kurlancheek,  A. Laurent,  A. M. Lee,  M. S. Lee,  S. V. Levchenko,  
 Ching Yeh Lin,  D. Liotard,  E. Livshits,  R. C. Lochan,  I. Lotan,  
 L. A. Martinez-Martinez,  P. E. Maslen,  N. Nair,  D. P. O'Neill,  
 D. Neuhauser,  E. Neuscamman,  C. M. Oana,  R. Olivares-Amaya,  R. Olson,  
 T. M. Perrine,  B. Peters,  P. A. Pieniazek,  A. Prociuk,  Y. M. Rhee,  
 J. Ritchie,  M. A. Rohrdanz,  E. Rosta,  N. J. Russ,  H. F. Schaefer III,  
 M. W. Schmidt,  N. E. Schultz,  S. Sharma,  N. Shenvi,  C. D. Sherrill,  
 A. C. Simmonett,  A. Sodt,  T. Stein,  D. Stuck,  K. S. Thanthiriwatte,  
 V. Vanovschi,  L. Vogt,  Tao Wang,  A. Warshel,  M. A. Watson,  
 C. F. Williams,  Q. Wu,  X. Xu,  Jun Yang,  W. Zhang,  Yan Zhao

   Please cite Q-Chem as follows:
  "Software for the frontiers of quantum chemistry:
   An overview of developments in the Q-Chem 5 package"
   J. Chem. Phys. 155, 084801 (2021)
   https://doi.org/10.1063/5.0055522 (open access)

 Q-Chem 6.2.0 for Intel X86 EM64T Linux

 Parts of Q-Chem use Armadillo 9.900.5 (Nocturnal Misbehaviour).
 http://arma.sourceforge.net/

 Q-Chem begins on Fri Jan 31 02:15:25 2025  

 Host: 
0

     Scratch files written to /data/brussel/103/vsc10365/activedata/TDDFTAnthocyanidines/qchem3385065//
 May224 |scratch|qcdevops|jenkins|workspace|build_RNUM -1
 Processing $rem in /apps/brussel/RL8/skylake/software/Q-Chem/6.2.0/config/preferences:
 Processing $rem in /user/brussel/103/vsc10365/.qchemrc:
 Symmetry turned off for PCM/SM12/SMD calculation

 Checking the input file for inconsistencies... 	...done.

--------------------------------------------------------------
User input:
--------------------------------------------------------------
$comment
TDDFT calculation of cyanidin Q2 structure
nprocs=16
mem=64gb
$end

$molecule
0 1
C    0.1864490   -1.7498820   -3.7263091
C    0.0965186   -0.5972829   -4.4940844
C   -0.0059291    0.6820626   -3.9023145
C   -0.0065190    0.7051977   -2.4316836
C    0.0925822   -0.5169225   -1.7133766
C    0.1881072   -1.7426116   -2.3209234
C   -0.1089899    1.8693523   -1.7040569
C   -0.1080618    1.8693725   -0.3062262
C    0.0021944    0.6648166    0.3732638
O    0.0988612   -0.4708986   -0.3544121
C    0.0100430    0.4228780    1.8066732
C   -0.2554843   -0.8760875    2.2828994
C   -0.2405278   -1.1468551    3.6344772
C    0.0487793   -0.1284868    4.5555976
C    0.3201009    1.1521982    4.0952855
C    0.2970010    1.4330913    2.7390377
O    0.2799372   -2.9788115   -4.3075054
H    0.1018670   -0.6740710   -5.5750053
O   -0.0975419    1.7604259   -4.5677473
H    0.2640450   -2.6583692   -1.7535730
H   -0.2028149    2.8161055   -2.2241082
O   -0.2410419    3.0309095    0.3990351
H   -0.4866818   -1.6789580    1.5963708
O   -0.5009074   -2.3833841    4.1680933
O    0.0662141   -0.3794571    5.8947297
H    0.5514581    1.9282681    4.8132134
H    0.5231883    2.4330658    2.4097180
H    0.2654009   -2.8913893   -5.2720005
H   -0.3287281    3.7737642   -0.2154219
H   -0.1487273   -1.3119387    6.0508784
H   -0.6814922   -3.0223023    3.4641054
$end

$rem
BASIS  =  def2-ma-TZVP
MEM_STATIC  =  2000
MEM_TOTAL  =  64000
METHOD  =  CAM-B3LYP
SOLVENT_METHOD = pcm
SYMMETRY_IGNORE  =  1
CIS_N_ROOTS = 7
CIS_SINGLETS = true
CIS_TRIPLETS = true
CISTR_PRINT = true
RPA = true
PRINT_ORBITALS = true
SCF_PRINT = 1
SCF_FINAL_PRINT = 2
PRINT_GENERAL_BASIS = true
CISTR_PRINT = true
PRINT_RADII_GYRE = true
MULTIPOLE_ORDER = 5
CIS_AMPL_PRINT = 5
CIS_AMPL_ANAL = true
STATE_ANALYSIS = true
$end

$pcm
Theory   CPCM
Method   SWIG
Solver   Inversion
Radii    Bondi
$end

$solvent
Dielectric         78.39
OpticalDielectric  1.777849
$end


--------------------------------------------------------------
 ----------------------------------------------------------------
             Standard Nuclear Orientation (Angstroms)
    I     Atom           X                Y                Z
 ----------------------------------------------------------------
    1      C       0.1864490000    -1.7498820000    -3.7263091000
    2      C       0.0965186000    -0.5972829000    -4.4940844000
    3      C      -0.0059291000     0.6820626000    -3.9023145000
    4      C      -0.0065190000     0.7051977000    -2.4316836000
    5      C       0.0925822000    -0.5169225000    -1.7133766000
    6      C       0.1881072000    -1.7426116000    -2.3209234000
    7      C      -0.1089899000     1.8693523000    -1.7040569000
    8      C      -0.1080618000     1.8693725000    -0.3062262000
    9      C       0.0021944000     0.6648166000     0.3732638000
   10      O       0.0988612000    -0.4708986000    -0.3544121000
   11      C       0.0100430000     0.4228780000     1.8066732000
   12      C      -0.2554843000    -0.8760875000     2.2828994000
   13      C      -0.2405278000    -1.1468551000     3.6344772000
   14      C       0.0487793000    -0.1284868000     4.5555976000
   15      C       0.3201009000     1.1521982000     4.0952855000
   16      C       0.2970010000     1.4330913000     2.7390377000
   17      O       0.2799372000    -2.9788115000    -4.3075054000
   18      H       0.1018670000    -0.6740710000    -5.5750053000
   19      O      -0.0975419000     1.7604259000    -4.5677473000
   20      H       0.2640450000    -2.6583692000    -1.7535730000
   21      H      -0.2028149000     2.8161055000    -2.2241082000
   22      O      -0.2410419000     3.0309095000     0.3990351000
   23      H      -0.4866818000    -1.6789580000     1.5963708000
   24      O      -0.5009074000    -2.3833841000     4.1680933000
   25      O       0.0662141000    -0.3794571000     5.8947297000
   26      H       0.5514581000     1.9282681000     4.8132134000
   27      H       0.5231883000     2.4330658000     2.4097180000
   28      H       0.2654009000    -2.8913893000    -5.2720005000
   29      H      -0.3287281000     3.7737642000    -0.2154219000
   30      H      -0.1487273000    -1.3119387000     6.0508784000
   31      H      -0.6814922000    -3.0223023000     3.4641054000
 ----------------------------------------------------------------
 Nuclear Repulsion Energy =        1562.92960956 hartrees
 There are       74 alpha and       74 beta electrons
 Requested basis set is def2-ma-TZVP
 Basis set in general basis input format:
-----------------------------------------------------------------------
$basis
C    0
S    6    1.000000
   1.35753497E+04    2.22458144E-04 
   2.03523337E+03    1.72327383E-03 
   4.63225624E+02    8.92557153E-03 
   1.31200196E+02    3.57279845E-02 
   4.28530159E+01    1.10762599E-01 
   1.55841858E+01    2.42956276E-01 
S    2    1.000000
   6.20671385E+00    4.14402634E-01 
   2.57648965E+00    2.37449687E-01 
S    1    1.000000
   5.76963394E-01    1.00000000E+00 
S    1    1.000000
   2.29728314E-01    1.00000000E+00 
S    1    1.000000
   9.51644400E-02    1.00000000E+00 
S    1    1.000000
   4.84754014E-02    1.00000000E+00 
P    4    1.000000
   3.46972322E+01    5.33336578E-03 
   7.95826228E+00    3.58641091E-02 
   2.37808269E+00    1.42158733E-01 
   8.14332082E-01    3.42704718E-01 
P    1    1.000000
   2.88875473E-01    4.64458224E-01 
P    1    1.000000
   1.00568237E-01    2.49557899E-01 
D    1    1.000000
   1.09700000E+00    1.00000000E+00 
D    1    1.000000
   3.18000000E-01    1.00000000E+00 
F    1    1.000000
   7.61000000E-01    1.00000000E+00 
****
C    0
S    6    1.000000
   1.35753497E+04    2.22458144E-04 
   2.03523337E+03    1.72327383E-03 
   4.63225624E+02    8.92557153E-03 
   1.31200196E+02    3.57279845E-02 
   4.28530159E+01    1.10762599E-01 
   1.55841858E+01    2.42956276E-01 
S    2    1.000000
   6.20671385E+00    4.14402634E-01 
   2.57648965E+00    2.37449687E-01 
S    1    1.000000
   5.76963394E-01    1.00000000E+00 
S    1    1.000000
   2.29728314E-01    1.00000000E+00 
S    1    1.000000
   9.51644400E-02    1.00000000E+00 
S    1    1.000000
   4.84754014E-02    1.00000000E+00 
P    4    1.000000
   3.46972322E+01    5.33336578E-03 
   7.95826228E+00    3.58641091E-02 
   2.37808269E+00    1.42158733E-01 
   8.14332082E-01    3.42704718E-01 
P    1    1.000000
   2.88875473E-01    4.64458224E-01 
P    1    1.000000
   1.00568237E-01    2.49557899E-01 
D    1    1.000000
   1.09700000E+00    1.00000000E+00 
D    1    1.000000
   3.18000000E-01    1.00000000E+00 
F    1    1.000000
   7.61000000E-01    1.00000000E+00 
****
C    0
S    6    1.000000
   1.35753497E+04    2.22458144E-04 
   2.03523337E+03    1.72327383E-03 
   4.63225624E+02    8.92557153E-03 
   1.31200196E+02    3.57279845E-02 
   4.28530159E+01    1.10762599E-01 
   1.55841858E+01    2.42956276E-01 
S    2    1.000000
   6.20671385E+00    4.14402634E-01 
   2.57648965E+00    2.37449687E-01 
S    1    1.000000
   5.76963394E-01    1.00000000E+00 
S    1    1.000000
   2.29728314E-01    1.00000000E+00 
S    1    1.000000
   9.51644400E-02    1.00000000E+00 
S    1    1.000000
   4.84754014E-02    1.00000000E+00 
P    4    1.000000
   3.46972322E+01    5.33336578E-03 
   7.95826228E+00    3.58641091E-02 
   2.37808269E+00    1.42158733E-01 
   8.14332082E-01    3.42704718E-01 
P    1    1.000000
   2.88875473E-01    4.64458224E-01 
P    1    1.000000
   1.00568237E-01    2.49557899E-01 
D    1    1.000000
   1.09700000E+00    1.00000000E+00 
D    1    1.000000
   3.18000000E-01    1.00000000E+00 
F    1    1.000000
   7.61000000E-01    1.00000000E+00 
****
C    0
S    6    1.000000
   1.35753497E+04    2.22458144E-04 
   2.03523337E+03    1.72327383E-03 
   4.63225624E+02    8.92557153E-03 
   1.31200196E+02    3.57279845E-02 
   4.28530159E+01    1.10762599E-01 
   1.55841858E+01    2.42956276E-01 
S    2    1.000000
   6.20671385E+00    4.14402634E-01 
   2.57648965E+00    2.37449687E-01 
S    1    1.000000
   5.76963394E-01    1.00000000E+00 
S    1    1.000000
   2.29728314E-01    1.00000000E+00 
S    1    1.000000
   9.51644400E-02    1.00000000E+00 
S    1    1.000000
   4.84754014E-02    1.00000000E+00 
P    4    1.000000
   3.46972322E+01    5.33336578E-03 
   7.95826228E+00    3.58641091E-02 
   2.37808269E+00    1.42158733E-01 
   8.14332082E-01    3.42704718E-01 
P    1    1.000000
   2.88875473E-01    4.64458224E-01 
P    1    1.000000
   1.00568237E-01    2.49557899E-01 
D    1    1.000000
   1.09700000E+00    1.00000000E+00 
D    1    1.000000
   3.18000000E-01    1.00000000E+00 
F    1    1.000000
   7.61000000E-01    1.00000000E+00 
****
C    0
S    6    1.000000
   1.35753497E+04    2.22458144E-04 
   2.03523337E+03    1.72327383E-03 
   4.63225624E+02    8.92557153E-03 
   1.31200196E+02    3.57279845E-02 
   4.28530159E+01    1.10762599E-01 
   1.55841858E+01    2.42956276E-01 
S    2    1.000000
   6.20671385E+00    4.14402634E-01 
   2.57648965E+00    2.37449687E-01 
S    1    1.000000
   5.76963394E-01    1.00000000E+00 
S    1    1.000000
   2.29728314E-01    1.00000000E+00 
S    1    1.000000
   9.51644400E-02    1.00000000E+00 
S    1    1.000000
   4.84754014E-02    1.00000000E+00 
P    4    1.000000
   3.46972322E+01    5.33336578E-03 
   7.95826228E+00    3.58641091E-02 
   2.37808269E+00    1.42158733E-01 
   8.14332082E-01    3.42704718E-01 
P    1    1.000000
   2.88875473E-01    4.64458224E-01 
P    1    1.000000
   1.00568237E-01    2.49557899E-01 
D    1    1.000000
   1.09700000E+00    1.00000000E+00 
D    1    1.000000
   3.18000000E-01    1.00000000E+00 
F    1    1.000000
   7.61000000E-01    1.00000000E+00 
****
C    0
S    6    1.000000
   1.35753497E+04    2.22458144E-04 
   2.03523337E+03    1.72327383E-03 
   4.63225624E+02    8.92557153E-03 
   1.31200196E+02    3.57279845E-02 
   4.28530159E+01    1.10762599E-01 
   1.55841858E+01    2.42956276E-01 
S    2    1.000000
   6.20671385E+00    4.14402634E-01 
   2.57648965E+00    2.37449687E-01 
S    1    1.000000
   5.76963394E-01    1.00000000E+00 
S    1    1.000000
   2.29728314E-01    1.00000000E+00 
S    1    1.000000
   9.51644400E-02    1.00000000E+00 
S    1    1.000000
   4.84754014E-02    1.00000000E+00 
P    4    1.000000
   3.46972322E+01    5.33336578E-03 
   7.95826228E+00    3.58641091E-02 
   2.37808269E+00    1.42158733E-01 
   8.14332082E-01    3.42704718E-01 
P    1    1.000000
   2.88875473E-01    4.64458224E-01 
P    1    1.000000
   1.00568237E-01    2.49557899E-01 
D    1    1.000000
   1.09700000E+00    1.00000000E+00 
D    1    1.000000
   3.18000000E-01    1.00000000E+00 
F    1    1.000000
   7.61000000E-01    1.00000000E+00 
****
C    0
S    6    1.000000
   1.35753497E+04    2.22458144E-04 
   2.03523337E+03    1.72327383E-03 
   4.63225624E+02    8.92557153E-03 
   1.31200196E+02    3.57279845E-02 
   4.28530159E+01    1.10762599E-01 
   1.55841858E+01    2.42956276E-01 
S    2    1.000000
   6.20671385E+00    4.14402634E-01 
   2.57648965E+00    2.37449687E-01 
S    1    1.000000
   5.76963394E-01    1.00000000E+00 
S    1    1.000000
   2.29728314E-01    1.00000000E+00 
S    1    1.000000
   9.51644400E-02    1.00000000E+00 
S    1    1.000000
   4.84754014E-02    1.00000000E+00 
P    4    1.000000
   3.46972322E+01    5.33336578E-03 
   7.95826228E+00    3.58641091E-02 
   2.37808269E+00    1.42158733E-01 
   8.14332082E-01    3.42704718E-01 
P    1    1.000000
   2.88875473E-01    4.64458224E-01 
P    1    1.000000
   1.00568237E-01    2.49557899E-01 
D    1    1.000000
   1.09700000E+00    1.00000000E+00 
D    1    1.000000
   3.18000000E-01    1.00000000E+00 
F    1    1.000000
   7.61000000E-01    1.00000000E+00 
****
C    0
S    6    1.000000
   1.35753497E+04    2.22458144E-04 
   2.03523337E+03    1.72327383E-03 
   4.63225624E+02    8.92557153E-03 
   1.31200196E+02    3.57279845E-02 
   4.28530159E+01    1.10762599E-01 
   1.55841858E+01    2.42956276E-01 
S    2    1.000000
   6.20671385E+00    4.14402634E-01 
   2.57648965E+00    2.37449687E-01 
S    1    1.000000
   5.76963394E-01    1.00000000E+00 
S    1    1.000000
   2.29728314E-01    1.00000000E+00 
S    1    1.000000
   9.51644400E-02    1.00000000E+00 
S    1    1.000000
   4.84754014E-02    1.00000000E+00 
P    4    1.000000
   3.46972322E+01    5.33336578E-03 
   7.95826228E+00    3.58641091E-02 
   2.37808269E+00    1.42158733E-01 
   8.14332082E-01    3.42704718E-01 
P    1    1.000000
   2.88875473E-01    4.64458224E-01 
P    1    1.000000
   1.00568237E-01    2.49557899E-01 
D    1    1.000000
   1.09700000E+00    1.00000000E+00 
D    1    1.000000
   3.18000000E-01    1.00000000E+00 
F    1    1.000000
   7.61000000E-01    1.00000000E+00 
****
C    0
S    6    1.000000
   1.35753497E+04    2.22458144E-04 
   2.03523337E+03    1.72327383E-03 
   4.63225624E+02    8.92557153E-03 
   1.31200196E+02    3.57279845E-02 
   4.28530159E+01    1.10762599E-01 
   1.55841858E+01    2.42956276E-01 
S    2    1.000000
   6.20671385E+00    4.14402634E-01 
   2.57648965E+00    2.37449687E-01 
S    1    1.000000
   5.76963394E-01    1.00000000E+00 
S    1    1.000000
   2.29728314E-01    1.00000000E+00 
S    1    1.000000
   9.51644400E-02    1.00000000E+00 
S    1    1.000000
   4.84754014E-02    1.00000000E+00 
P    4    1.000000
   3.46972322E+01    5.33336578E-03 
   7.95826228E+00    3.58641091E-02 
   2.37808269E+00    1.42158733E-01 
   8.14332082E-01    3.42704718E-01 
P    1    1.000000
   2.88875473E-01    4.64458224E-01 
P    1    1.000000
   1.00568237E-01    2.49557899E-01 
D    1    1.000000
   1.09700000E+00    1.00000000E+00 
D    1    1.000000
   3.18000000E-01    1.00000000E+00 
F    1    1.000000
   7.61000000E-01    1.00000000E+00 
****
O    0
S    6    1.000000
   2.70323826E+04    2.17263025E-04 
   4.05238714E+03    1.68386622E-03 
   9.22327227E+02    8.73956163E-03 
   2.61240710E+02    3.52399688E-02 
   8.53546414E+01    1.11535191E-01 
   3.10350352E+01    2.55889540E-01 
S    2    1.000000
   1.22608607E+01    3.97687309E-01 
   4.99870760E+00    2.46278494E-01 
S    1    1.000000
   1.17031082E+00    1.00000000E+00 
S    1    1.000000
   4.64747410E-01    1.00000000E+00 
S    1    1.000000
   1.85045364E-01    1.00000000E+00 
S    1    1.000000
   7.02880263E-02    1.00000000E+00 
P    4    1.000000
   6.32749548E+01    6.06851034E-03 
   1.46270494E+01    4.19125758E-02 
   4.45012235E+00    1.61538411E-01 
   1.52757996E+00    3.57069513E-01 
P    1    1.000000
   5.29351179E-01    4.47942075E-01 
P    1    1.000000
   1.74784213E-01    2.44460697E-01 
P    1    1.000000
   5.11127457E-02    1.00000000E+00 
D    1    1.000000
   2.31400000E+00    1.00000000E+00 
D    1    1.000000
   6.45000000E-01    1.00000000E+00 
F    1    1.000000
   1.42800000E+00    1.00000000E+00 
****
C    0
S    6    1.000000
   1.35753497E+04    2.22458144E-04 
   2.03523337E+03    1.72327383E-03 
   4.63225624E+02    8.92557153E-03 
   1.31200196E+02    3.57279845E-02 
   4.28530159E+01    1.10762599E-01 
   1.55841858E+01    2.42956276E-01 
S    2    1.000000
   6.20671385E+00    4.14402634E-01 
   2.57648965E+00    2.37449687E-01 
S    1    1.000000
   5.76963394E-01    1.00000000E+00 
S    1    1.000000
   2.29728314E-01    1.00000000E+00 
S    1    1.000000
   9.51644400E-02    1.00000000E+00 
S    1    1.000000
   4.84754014E-02    1.00000000E+00 
P    4    1.000000
   3.46972322E+01    5.33336578E-03 
   7.95826228E+00    3.58641091E-02 
   2.37808269E+00    1.42158733E-01 
   8.14332082E-01    3.42704718E-01 
P    1    1.000000
   2.88875473E-01    4.64458224E-01 
P    1    1.000000
   1.00568237E-01    2.49557899E-01 
D    1    1.000000
   1.09700000E+00    1.00000000E+00 
D    1    1.000000
   3.18000000E-01    1.00000000E+00 
F    1    1.000000
   7.61000000E-01    1.00000000E+00 
****
C    0
S    6    1.000000
   1.35753497E+04    2.22458144E-04 
   2.03523337E+03    1.72327383E-03 
   4.63225624E+02    8.92557153E-03 
   1.31200196E+02    3.57279845E-02 
   4.28530159E+01    1.10762599E-01 
   1.55841858E+01    2.42956276E-01 
S    2    1.000000
   6.20671385E+00    4.14402634E-01 
   2.57648965E+00    2.37449687E-01 
S    1    1.000000
   5.76963394E-01    1.00000000E+00 
S    1    1.000000
   2.29728314E-01    1.00000000E+00 
S    1    1.000000
   9.51644400E-02    1.00000000E+00 
S    1    1.000000
   4.84754014E-02    1.00000000E+00 
P    4    1.000000
   3.46972322E+01    5.33336578E-03 
   7.95826228E+00    3.58641091E-02 
   2.37808269E+00    1.42158733E-01 
   8.14332082E-01    3.42704718E-01 
P    1    1.000000
   2.88875473E-01    4.64458224E-01 
P    1    1.000000
   1.00568237E-01    2.49557899E-01 
D    1    1.000000
   1.09700000E+00    1.00000000E+00 
D    1    1.000000
   3.18000000E-01    1.00000000E+00 
F    1    1.000000
   7.61000000E-01    1.00000000E+00 
****
C    0
S    6    1.000000
   1.35753497E+04    2.22458144E-04 
   2.03523337E+03    1.72327383E-03 
   4.63225624E+02    8.92557153E-03 
   1.31200196E+02    3.57279845E-02 
   4.28530159E+01    1.10762599E-01 
   1.55841858E+01    2.42956276E-01 
S    2    1.000000
   6.20671385E+00    4.14402634E-01 
   2.57648965E+00    2.37449687E-01 
S    1    1.000000
   5.76963394E-01    1.00000000E+00 
S    1    1.000000
   2.29728314E-01    1.00000000E+00 
S    1    1.000000
   9.51644400E-02    1.00000000E+00 
S    1    1.000000
   4.84754014E-02    1.00000000E+00 
P    4    1.000000
   3.46972322E+01    5.33336578E-03 
   7.95826228E+00    3.58641091E-02 
   2.37808269E+00    1.42158733E-01 
   8.14332082E-01    3.42704718E-01 
P    1    1.000000
   2.88875473E-01    4.64458224E-01 
P    1    1.000000
   1.00568237E-01    2.49557899E-01 
D    1    1.000000
   1.09700000E+00    1.00000000E+00 
D    1    1.000000
   3.18000000E-01    1.00000000E+00 
F    1    1.000000
   7.61000000E-01    1.00000000E+00 
****
C    0
S    6    1.000000
   1.35753497E+04    2.22458144E-04 
   2.03523337E+03    1.72327383E-03 
   4.63225624E+02    8.92557153E-03 
   1.31200196E+02    3.57279845E-02 
   4.28530159E+01    1.10762599E-01 
   1.55841858E+01    2.42956276E-01 
S    2    1.000000
   6.20671385E+00    4.14402634E-01 
   2.57648965E+00    2.37449687E-01 
S    1    1.000000
   5.76963394E-01    1.00000000E+00 
S    1    1.000000
   2.29728314E-01    1.00000000E+00 
S    1    1.000000
   9.51644400E-02    1.00000000E+00 
S    1    1.000000
   4.84754014E-02    1.00000000E+00 
P    4    1.000000
   3.46972322E+01    5.33336578E-03 
   7.95826228E+00    3.58641091E-02 
   2.37808269E+00    1.42158733E-01 
   8.14332082E-01    3.42704718E-01 
P    1    1.000000
   2.88875473E-01    4.64458224E-01 
P    1    1.000000
   1.00568237E-01    2.49557899E-01 
D    1    1.000000
   1.09700000E+00    1.00000000E+00 
D    1    1.000000
   3.18000000E-01    1.00000000E+00 
F    1    1.000000
   7.61000000E-01    1.00000000E+00 
****
C    0
S    6    1.000000
   1.35753497E+04    2.22458144E-04 
   2.03523337E+03    1.72327383E-03 
   4.63225624E+02    8.92557153E-03 
   1.31200196E+02    3.57279845E-02 
   4.28530159E+01    1.10762599E-01 
   1.55841858E+01    2.42956276E-01 
S    2    1.000000
   6.20671385E+00    4.14402634E-01 
   2.57648965E+00    2.37449687E-01 
S    1    1.000000
   5.76963394E-01    1.00000000E+00 
S    1    1.000000
   2.29728314E-01    1.00000000E+00 
S    1    1.000000
   9.51644400E-02    1.00000000E+00 
S    1    1.000000
   4.84754014E-02    1.00000000E+00 
P    4    1.000000
   3.46972322E+01    5.33336578E-03 
   7.95826228E+00    3.58641091E-02 
   2.37808269E+00    1.42158733E-01 
   8.14332082E-01    3.42704718E-01 
P    1    1.000000
   2.88875473E-01    4.64458224E-01 
P    1    1.000000
   1.00568237E-01    2.49557899E-01 
D    1    1.000000
   1.09700000E+00    1.00000000E+00 
D    1    1.000000
   3.18000000E-01    1.00000000E+00 
F    1    1.000000
   7.61000000E-01    1.00000000E+00 
****
C    0
S    6    1.000000
   1.35753497E+04    2.22458144E-04 
   2.03523337E+03    1.72327383E-03 
   4.63225624E+02    8.92557153E-03 
   1.31200196E+02    3.57279845E-02 
   4.28530159E+01    1.10762599E-01 
   1.55841858E+01    2.42956276E-01 
S    2    1.000000
   6.20671385E+00    4.14402634E-01 
   2.57648965E+00    2.37449687E-01 
S    1    1.000000
   5.76963394E-01    1.00000000E+00 
S    1    1.000000
   2.29728314E-01    1.00000000E+00 
S    1    1.000000
   9.51644400E-02    1.00000000E+00 
S    1    1.000000
   4.84754014E-02    1.00000000E+00 
P    4    1.000000
   3.46972322E+01    5.33336578E-03 
   7.95826228E+00    3.58641091E-02 
   2.37808269E+00    1.42158733E-01 
   8.14332082E-01    3.42704718E-01 
P    1    1.000000
   2.88875473E-01    4.64458224E-01 
P    1    1.000000
   1.00568237E-01    2.49557899E-01 
D    1    1.000000
   1.09700000E+00    1.00000000E+00 
D    1    1.000000
   3.18000000E-01    1.00000000E+00 
F    1    1.000000
   7.61000000E-01    1.00000000E+00 
****
O    0
S    6    1.000000
   2.70323826E+04    2.17263025E-04 
   4.05238714E+03    1.68386622E-03 
   9.22327227E+02    8.73956163E-03 
   2.61240710E+02    3.52399688E-02 
   8.53546414E+01    1.11535191E-01 
   3.10350352E+01    2.55889540E-01 
S    2    1.000000
   1.22608607E+01    3.97687309E-01 
   4.99870760E+00    2.46278494E-01 
S    1    1.000000
   1.17031082E+00    1.00000000E+00 
S    1    1.000000
   4.64747410E-01    1.00000000E+00 
S    1    1.000000
   1.85045364E-01    1.00000000E+00 
S    1    1.000000
   7.02880263E-02    1.00000000E+00 
P    4    1.000000
   6.32749548E+01    6.06851034E-03 
   1.46270494E+01    4.19125758E-02 
   4.45012235E+00    1.61538411E-01 
   1.52757996E+00    3.57069513E-01 
P    1    1.000000
   5.29351179E-01    4.47942075E-01 
P    1    1.000000
   1.74784213E-01    2.44460697E-01 
P    1    1.000000
   5.11127457E-02    1.00000000E+00 
D    1    1.000000
   2.31400000E+00    1.00000000E+00 
D    1    1.000000
   6.45000000E-01    1.00000000E+00 
F    1    1.000000
   1.42800000E+00    1.00000000E+00 
****
H    0
S    3    1.000000
   3.40613410E+01    6.02519780E-03 
   5.12357460E+00    4.50210940E-02 
   1.16466260E+00    2.01897260E-01 
S    1    1.000000
   3.27230410E-01    1.00000000E+00 
S    1    1.000000
   1.03072410E-01    1.00000000E+00 
P    1    1.000000
   8.00000000E-01    1.00000000E+00 
****
O    0
S    6    1.000000
   2.70323826E+04    2.17263025E-04 
   4.05238714E+03    1.68386622E-03 
   9.22327227E+02    8.73956163E-03 
   2.61240710E+02    3.52399688E-02 
   8.53546414E+01    1.11535191E-01 
   3.10350352E+01    2.55889540E-01 
S    2    1.000000
   1.22608607E+01    3.97687309E-01 
   4.99870760E+00    2.46278494E-01 
S    1    1.000000
   1.17031082E+00    1.00000000E+00 
S    1    1.000000
   4.64747410E-01    1.00000000E+00 
S    1    1.000000
   1.85045364E-01    1.00000000E+00 
S    1    1.000000
   7.02880263E-02    1.00000000E+00 
P    4    1.000000
   6.32749548E+01    6.06851034E-03 
   1.46270494E+01    4.19125758E-02 
   4.45012235E+00    1.61538411E-01 
   1.52757996E+00    3.57069513E-01 
P    1    1.000000
   5.29351179E-01    4.47942075E-01 
P    1    1.000000
   1.74784213E-01    2.44460697E-01 
P    1    1.000000
   5.11127457E-02    1.00000000E+00 
D    1    1.000000
   2.31400000E+00    1.00000000E+00 
D    1    1.000000
   6.45000000E-01    1.00000000E+00 
F    1    1.000000
   1.42800000E+00    1.00000000E+00 
****
H    0
S    3    1.000000
   3.40613410E+01    6.02519780E-03 
   5.12357460E+00    4.50210940E-02 
   1.16466260E+00    2.01897260E-01 
S    1    1.000000
   3.27230410E-01    1.00000000E+00 
S    1    1.000000
   1.03072410E-01    1.00000000E+00 
P    1    1.000000
   8.00000000E-01    1.00000000E+00 
****
H    0
S    3    1.000000
   3.40613410E+01    6.02519780E-03 
   5.12357460E+00    4.50210940E-02 
   1.16466260E+00    2.01897260E-01 
S    1    1.000000
   3.27230410E-01    1.00000000E+00 
S    1    1.000000
   1.03072410E-01    1.00000000E+00 
P    1    1.000000
   8.00000000E-01    1.00000000E+00 
****
O    0
S    6    1.000000
   2.70323826E+04    2.17263025E-04 
   4.05238714E+03    1.68386622E-03 
   9.22327227E+02    8.73956163E-03 
   2.61240710E+02    3.52399688E-02 
   8.53546414E+01    1.11535191E-01 
   3.10350352E+01    2.55889540E-01 
S    2    1.000000
   1.22608607E+01    3.97687309E-01 
   4.99870760E+00    2.46278494E-01 
S    1    1.000000
   1.17031082E+00    1.00000000E+00 
S    1    1.000000
   4.64747410E-01    1.00000000E+00 
S    1    1.000000
   1.85045364E-01    1.00000000E+00 
S    1    1.000000
   7.02880263E-02    1.00000000E+00 
P    4    1.000000
   6.32749548E+01    6.06851034E-03 
   1.46270494E+01    4.19125758E-02 
   4.45012235E+00    1.61538411E-01 
   1.52757996E+00    3.57069513E-01 
P    1    1.000000
   5.29351179E-01    4.47942075E-01 
P    1    1.000000
   1.74784213E-01    2.44460697E-01 
P    1    1.000000
   5.11127457E-02    1.00000000E+00 
D    1    1.000000
   2.31400000E+00    1.00000000E+00 
D    1    1.000000
   6.45000000E-01    1.00000000E+00 
F    1    1.000000
   1.42800000E+00    1.00000000E+00 
****
H    0
S    3    1.000000
   3.40613410E+01    6.02519780E-03 
   5.12357460E+00    4.50210940E-02 
   1.16466260E+00    2.01897260E-01 
S    1    1.000000
   3.27230410E-01    1.00000000E+00 
S    1    1.000000
   1.03072410E-01    1.00000000E+00 
P    1    1.000000
   8.00000000E-01    1.00000000E+00 
****
O    0
S    6    1.000000
   2.70323826E+04    2.17263025E-04 
   4.05238714E+03    1.68386622E-03 
   9.22327227E+02    8.73956163E-03 
   2.61240710E+02    3.52399688E-02 
   8.53546414E+01    1.11535191E-01 
   3.10350352E+01    2.55889540E-01 
S    2    1.000000
   1.22608607E+01    3.97687309E-01 
   4.99870760E+00    2.46278494E-01 
S    1    1.000000
   1.17031082E+00    1.00000000E+00 
S    1    1.000000
   4.64747410E-01    1.00000000E+00 
S    1    1.000000
   1.85045364E-01    1.00000000E+00 
S    1    1.000000
   7.02880263E-02    1.00000000E+00 
P    4    1.000000
   6.32749548E+01    6.06851034E-03 
   1.46270494E+01    4.19125758E-02 
   4.45012235E+00    1.61538411E-01 
   1.52757996E+00    3.57069513E-01 
P    1    1.000000
   5.29351179E-01    4.47942075E-01 
P    1    1.000000
   1.74784213E-01    2.44460697E-01 
P    1    1.000000
   5.11127457E-02    1.00000000E+00 
D    1    1.000000
   2.31400000E+00    1.00000000E+00 
D    1    1.000000
   6.45000000E-01    1.00000000E+00 
F    1    1.000000
   1.42800000E+00    1.00000000E+00 
****
O    0
S    6    1.000000
   2.70323826E+04    2.17263025E-04 
   4.05238714E+03    1.68386622E-03 
   9.22327227E+02    8.73956163E-03 
   2.61240710E+02    3.52399688E-02 
   8.53546414E+01    1.11535191E-01 
   3.10350352E+01    2.55889540E-01 
S    2    1.000000
   1.22608607E+01    3.97687309E-01 
   4.99870760E+00    2.46278494E-01 
S    1    1.000000
   1.17031082E+00    1.00000000E+00 
S    1    1.000000
   4.64747410E-01    1.00000000E+00 
S    1    1.000000
   1.85045364E-01    1.00000000E+00 
S    1    1.000000
   7.02880263E-02    1.00000000E+00 
P    4    1.000000
   6.32749548E+01    6.06851034E-03 
   1.46270494E+01    4.19125758E-02 
   4.45012235E+00    1.61538411E-01 
   1.52757996E+00    3.57069513E-01 
P    1    1.000000
   5.29351179E-01    4.47942075E-01 
P    1    1.000000
   1.74784213E-01    2.44460697E-01 
P    1    1.000000
   5.11127457E-02    1.00000000E+00 
D    1    1.000000
   2.31400000E+00    1.00000000E+00 
D    1    1.000000
   6.45000000E-01    1.00000000E+00 
F    1    1.000000
   1.42800000E+00    1.00000000E+00 
****
H    0
S    3    1.000000
   3.40613410E+01    6.02519780E-03 
   5.12357460E+00    4.50210940E-02 
   1.16466260E+00    2.01897260E-01 
S    1    1.000000
   3.27230410E-01    1.00000000E+00 
S    1    1.000000
   1.03072410E-01    1.00000000E+00 
P    1    1.000000
   8.00000000E-01    1.00000000E+00 
****
H    0
S    3    1.000000
   3.40613410E+01    6.02519780E-03 
   5.12357460E+00    4.50210940E-02 
   1.16466260E+00    2.01897260E-01 
S    1    1.000000
   3.27230410E-01    1.00000000E+00 
S    1    1.000000
   1.03072410E-01    1.00000000E+00 
P    1    1.000000
   8.00000000E-01    1.00000000E+00 
****
H    0
S    3    1.000000
   3.40613410E+01    6.02519780E-03 
   5.12357460E+00    4.50210940E-02 
   1.16466260E+00    2.01897260E-01 
S    1    1.000000
   3.27230410E-01    1.00000000E+00 
S    1    1.000000
   1.03072410E-01    1.00000000E+00 
P    1    1.000000
   8.00000000E-01    1.00000000E+00 
****
H    0
S    3    1.000000
   3.40613410E+01    6.02519780E-03 
   5.12357460E+00    4.50210940E-02 
   1.16466260E+00    2.01897260E-01 
S    1    1.000000
   3.27230410E-01    1.00000000E+00 
S    1    1.000000
   1.03072410E-01    1.00000000E+00 
P    1    1.000000
   8.00000000E-01    1.00000000E+00 
****
H    0
S    3    1.000000
   3.40613410E+01    6.02519780E-03 
   5.12357460E+00    4.50210940E-02 
   1.16466260E+00    2.01897260E-01 
S    1    1.000000
   3.27230410E-01    1.00000000E+00 
S    1    1.000000
   1.03072410E-01    1.00000000E+00 
P    1    1.000000
   8.00000000E-01    1.00000000E+00 
****
H    0
S    3    1.000000
   3.40613410E+01    6.02519780E-03 
   5.12357460E+00    4.50210940E-02 
   1.16466260E+00    2.01897260E-01 
S    1    1.000000
   3.27230410E-01    1.00000000E+00 
S    1    1.000000
   1.03072410E-01    1.00000000E+00 
P    1    1.000000
   8.00000000E-01    1.00000000E+00 
****
$end
-----------------------------------------------------------------------
 There are 298 shells and 750 basis functions

 Total QAlloc Memory Limit  64000 MB
 Mega-Array Size      1956 MB
 MEM_STATIC part      2000 MB

 User-specified dielectric constants (eps_0 = 78.39, eps_inf = 1.78)
 Using C-PCM dielectric factor f(eps) = (eps-1)/eps = 0.987243
 Static dielectric constant eps = 78.39
 Discretize the solute cavity surface with Lebedev spheres
	Using 110 Lebedev grid points for each H atom
	Using 194 Lebedev grid points for other atoms
	Atomic van der Waals radii (Bondi set) will be scaled by 1.20
 Using smooth SwiG surface discretization
 Remove points where switching function is < 1.0e-08
 Keep 2133 surface tesserae and discard 3041 interior tesserae
 Molecular Surface Area = 296.958 Angst**2

 A cutoff of  1.0D-12 yielded  32123 shell pairs
 There are    191953 function pairs (    244121 Cartesian)
 Smallest overlap matrix eigenvalue = 4.79E-06

 Scale SEOQF with 1.000000e-01/1.000000e-01/1.000000e-02

 Standard Electronic Orientation quadrupole field applied
 Nucleus-field energy     =     0.0000000111 hartrees
 Guess from superposition of atomic densities
 Warning:  Energy on first SCF cycle will be non-variational
 SAD guess density has 148.000000 electrons

 -----------------------------------------------------------------------
  General SCF calculation program by
  Eric Jon Sundstrom, Paul Horn, Yuezhi Mao, Dmitri Zuev, Alec White,
  David Stuck, Shaama M.S., Shane Yost, Joonho Lee, David Small,
  Daniel Levine, Susi Lehtola, Hugh Burton, Evgeny Epifanovsky,
  Bang C. Huynh
 -----------------------------------------------------------------------
 Exchange:     0.1900 Hartree-Fock + 0.3500 B88 + 0.4600 muB88 + LR-HF
 Correlation:  0.1900 VWN5 + 0.8100 LYP
 Using SG-1 standard quadrature grid
 using 16 threads for integral computing
 -------------------------------------------------------
 OpenMP Integral computing Module                
 Release: version 1.0, May 2013, Q-Chem Inc. Pittsburgh 
 -------------------------------------------------------
 C-PCM solvent model [f = (eps-1)/eps], solve by matrix inversion
 DFT Correlation          Energy =  -6.03837978878912
 DFT Exchange             Energy = -92.74071872458359
 HF Exchange              Energy = -38.00659026549759
 One-Electron             Energy = -4495.23709025321114
 SCRF wf-dependent energy Energy =   0.00000000000000
 Total Coulomb            Energy = 2033.89993552599708
 Nuclear repulsion Energy = 1562.92960957263927
 A restricted SCF calculation will be
 performed using DIIS
 SCF converges when DIIS error is below 1.0e-08
 DFT Correlation          Energy =  -6.03837978878912
 DFT Exchange             Energy = -92.74071872458359
 HF Exchange              Energy = -38.00659026549759
 One-Electron             Energy = -4495.23709025321114
 SCRF wf-dependent energy Energy =   0.00000000000000
 Total Coulomb            Energy = 2033.89993552599708
 ---------------------------------------
  Cycle       Energy         DIIS error
 ---------------------------------------
 DFT Correlation          Energy =  -6.12091875571153
 DFT Exchange             Energy = -94.72645866269318
 HF Exchange              Energy = -36.71395437607395
 One-Electron             Energy = -4514.43157223979142
 SCRF wf-dependent energy Energy =  -1.17232423315659
 Total Coulomb            Energy = 2061.64079145158621
 Nuclear repulsion Energy = 1562.92960957263927
    1   -1035.1932339334      2.12e-02  
 DFT Correlation          Energy =  -6.06152105869550
 DFT Exchange             Energy = -93.00534852149926
 HF Exchange              Energy = -36.23163720080562
 One-Electron             Energy = -4501.33410230881236
 SCRF wf-dependent energy Energy =   0.27271574879387
 Total Coulomb            Energy = 2044.96388090272035
 Nuclear repulsion Energy = 1562.92960957263927
    2   -1028.5948272432      2.34e-03  
 DFT Correlation          Energy =  -6.08807650897349
 DFT Exchange             Energy = -93.83759006298790
 HF Exchange              Energy = -36.48329958492346
 One-Electron             Energy = -4505.07483658761703
 SCRF wf-dependent energy Energy =  -1.10351650840585
 Total Coulomb            Energy = 2050.76051925892943
 Nuclear repulsion Energy = 1562.92960957263927
    3   -1028.4664028657      2.95e-03  
 DFT Correlation          Energy =  -6.09032156550208
 DFT Exchange             Energy = -93.87128049202478
 HF Exchange              Energy = -36.49163084515717
 One-Electron             Energy = -4506.85451593395919
 SCRF wf-dependent energy Energy =  -0.76125567420058
 Total Coulomb            Energy = 2052.22877688397693
 Nuclear repulsion Energy = 1562.92960957263927
    4   -1028.8971904213      5.25e-04  
 DFT Correlation          Energy =  -6.08997225194564
 DFT Exchange             Energy = -93.86300587159968
 HF Exchange              Energy = -36.49021966570727
 One-Electron             Energy = -4506.85216318059520
 SCRF wf-dependent energy Energy =  -0.73243270423723
 Total Coulomb            Energy = 2052.18577905346683
 Nuclear repulsion Energy = 1562.92960957263927
    5   -1028.9106180542      1.88e-04  
 DFT Correlation          Energy =  -6.08973593329497
 DFT Exchange             Energy = -93.86017485147042
 HF Exchange              Energy = -36.49015418464320
 One-Electron             Energy = -4506.64472285786633
 SCRF wf-dependent energy Energy =  -0.77337857012458
 Total Coulomb            Energy = 2052.01592988524544
 Nuclear repulsion Energy = 1562.92960957263927
    6   -1028.9124050480      5.88e-05  
 DFT Correlation          Energy =  -6.08972252950407
 DFT Exchange             Energy = -93.85956188347666
 HF Exchange              Energy = -36.49022680669440
 One-Electron             Energy = -4506.66069721276472
 SCRF wf-dependent energy Energy =  -0.76467201920741
 Total Coulomb            Energy = 2052.02261526374332
 Nuclear repulsion Energy = 1562.92960957263927
    7   -1028.9126269395      1.61e-05  
 DFT Correlation          Energy =  -6.08976934065197
 DFT Exchange             Energy = -93.86058059944867
 HF Exchange              Energy = -36.49059475665125
 One-Electron             Energy = -4506.68615156056148
 SCRF wf-dependent energy Energy =  -0.76157623407607
 Total Coulomb            Energy = 2052.04639739544336
 Nuclear repulsion Energy = 1562.92960957263927
    8   -1028.9126556153      7.40e-06  
 DFT Correlation          Energy =  -6.08976929879705
 DFT Exchange             Energy = -93.86080968022290
 HF Exchange              Energy = -36.49073697809634
 One-Electron             Energy = -4506.69074432693924
 SCRF wf-dependent energy Energy =  -0.75914791401010
 Total Coulomb            Energy = 2052.04892897743912
 Nuclear repulsion Energy = 1562.92960957263927
    9   -1028.9126655233      3.37e-06  
 DFT Correlation          Energy =  -6.08976236040214
 DFT Exchange             Energy = -93.86055024751255
 HF Exchange              Energy = -36.49068741837663
 One-Electron             Energy = -4506.68722048773816
 SCRF wf-dependent energy Energy =  -0.75927216220452
 Total Coulomb            Energy = 2052.04521269042198
 Nuclear repulsion Energy = 1562.92960957263927
   10   -1028.9126696480      1.90e-06  
 DFT Correlation          Energy =  -6.08976683896404
 DFT Exchange             Energy = -93.86070630511196
 HF Exchange              Energy = -36.49073138800849
 One-Electron             Energy = -4506.69077042430581
 SCRF wf-dependent energy Energy =  -0.75846765024585
 Total Coulomb            Energy = 2052.04816243923824
 Nuclear repulsion Energy = 1562.92960957263927
   11   -1028.9126704132      6.55e-07  
 DFT Correlation          Energy =  -6.08976735171145
 DFT Exchange             Energy = -93.86069756630911
 HF Exchange              Energy = -36.49072874611523
 One-Electron             Energy = -4506.69133798041366
 SCRF wf-dependent energy Energy =  -0.75823891324239
 Total Coulomb            Energy = 2052.04849035724919
 Nuclear repulsion Energy = 1562.92960957263927
   12   -1028.9126705948      3.88e-07  
 DFT Correlation          Energy =  -6.08976728655503
 DFT Exchange             Energy = -93.86070267950696
 HF Exchange              Energy = -36.49072925002976
 One-Electron             Energy = -4506.69134092720469
 SCRF wf-dependent energy Energy =  -0.75820531733211
 Total Coulomb            Energy = 2052.04846525576022
 Nuclear repulsion Energy = 1562.92960957263927
   13   -1028.9126706279      1.45e-07  
 DFT Correlation          Energy =  -6.08976726694400
 DFT Exchange             Energy = -93.86070088894792
 HF Exchange              Energy = -36.49072846256425
 One-Electron             Energy = -4506.69141399951695
 SCRF wf-dependent energy Energy =  -0.75817013629262
 Total Coulomb            Energy = 2052.04850054916551
 Nuclear repulsion Energy = 1562.92960957263927
   14   -1028.9126706322      4.21e-08  
 DFT Correlation          Energy =  -6.08976731390155
 DFT Exchange             Energy = -93.86070178198672
 HF Exchange              Energy = -36.49072864697533
 One-Electron             Energy = -4506.69143115352108
 SCRF wf-dependent energy Energy =  -0.75816876823251
 Total Coulomb            Energy = 2052.04851745954693
 Nuclear repulsion Energy = 1562.92960957263927
   15   -1028.9126706325      1.86e-08  
   16   -1028.9126706324      5.77e-09  Convergence criterion met
 ---------------------------------------
 DFT Correlation          Energy =  -6.08976731390155
 DFT Exchange             Energy = -93.86070178198672
 HF Exchange              Energy = -36.49072864697533
 One-Electron             Energy = -4506.69143115352108
 SCRF wf-dependent energy Energy =  -0.75816876823251
 Total Coulomb            Energy = 2052.04851745954693
 Final Alpha MO Eigenvalues
            1           2           3           4           5           6
    1 -19.2996042 -19.2462993 -19.2443045 -19.2438575 -19.2433661 -19.1514096
            7           8           9          10          11          12
    1 -10.3616308 -10.3464002 -10.3378907 -10.3355080 -10.3270458 -10.3238382
           13          14          15          16          17          18
    1 -10.3208363 -10.2981738 -10.2801880 -10.2754095 -10.2660011 -10.2623720
           19          20          21          22          23          24
    1 -10.2573248 -10.2434385 -10.2326264  -1.2254858  -1.1694993  -1.1617859
           25          26          27          28          29          30
    1  -1.1567209  -1.1417551  -1.0769866  -0.9667422  -0.9481907  -0.9232120
           31          32          33          34          35          36
    1  -0.8823534  -0.8436605  -0.8330590  -0.8180641  -0.7666365  -0.7619129
           37          38          39          40          41          42
    1  -0.7266918  -0.7054185  -0.6879886  -0.6711579  -0.6434550  -0.6334383
           43          44          45          46          47          48
    1  -0.6226810  -0.6197923  -0.5860970  -0.5783746  -0.5724202  -0.5656983
           49          50          51          52          53          54
    1  -0.5491871  -0.5303468  -0.5227753  -0.5186161  -0.5078211  -0.5035236
           55          56          57          58          59          60
    1  -0.4995561  -0.4925645  -0.4882609  -0.4801487  -0.4761369  -0.4627357
           61          62          63          64          65          66
    1  -0.4581938  -0.4567852  -0.4526769  -0.4412609  -0.4286823  -0.4268802
           67          68          69          70          71          72
    1  -0.4197076  -0.3827485  -0.3647084  -0.3242061  -0.3150917  -0.3071887
           73          74          75          76          77          78
    1  -0.2798348  -0.2490162  -0.0681616   0.0061573   0.0258179   0.0270727
           79          80          81          82          83          84
    1   0.0328757   0.0393167   0.0508347   0.0519168   0.0525105   0.0601597
           85          86          87          88          89          90
    1   0.0633199   0.0738107   0.0765799   0.0807952   0.0871207   0.0919186
           91          92          93          94          95          96
    1   0.0930612   0.0999854   0.1022627   0.1090556   0.1116378   0.1194644
           97          98          99         100         101         102
    1   0.1208485   0.1224323   0.1300264   0.1386178   0.1409161   0.1452297
          103         104         105         106         107         108
    1   0.1501658   0.1543230   0.1575105   0.1600656   0.1732285   0.1789592
          109         110         111         112         113         114
    1   0.1850806   0.1863184   0.1903554   0.1954542   0.2119255   0.2137348
          115         116         117         118         119         120
    1   0.2159189   0.2192538   0.2272344   0.2281046   0.2342318   0.2357007
          121         122         123         124         125         126
    1   0.2384198   0.2422087   0.2483778   0.2537000   0.2620608   0.2722539
          127         128         129         130         131         132
    1   0.2739969   0.2757918   0.2838540   0.2867956   0.2918504   0.2972547
          133         134         135         136         137         138
    1   0.3057220   0.3059922   0.3076729   0.3154679   0.3185576   0.3225146
          139         140         141         142         143         144
    1   0.3258226   0.3314052   0.3382439   0.3392365   0.3426829   0.3487514
          145         146         147         148         149         150
    1   0.3507840   0.3530814   0.3582912   0.3656066   0.3708500   0.3729803
          151         152         153         154         155         156
    1   0.3783589   0.3819189   0.3927625   0.3993503   0.4005431   0.4057519
          157         158         159         160         161         162
    1   0.4069102   0.4100958   0.4212088   0.4238522   0.4330065   0.4350690
          163         164         165         166         167         168
    1   0.4372874   0.4442162   0.4454744   0.4481470   0.4504106   0.4549727
          169         170         171         172         173         174
    1   0.4652141   0.4702628   0.4732260   0.4813496   0.4847346   0.4855762
          175         176         177         178         179         180
    1   0.4893173   0.4963794   0.4987374   0.5102203   0.5150454   0.5163344
          181         182         183         184         185         186
    1   0.5209592   0.5304855   0.5331364   0.5372916   0.5478912   0.5513721
          187         188         189         190         191         192
    1   0.5563530   0.5603418   0.5656442   0.5691554   0.5728268   0.5840863
          193         194         195         196         197         198
    1   0.5849028   0.5971135   0.6017674   0.6062681   0.6064718   0.6098294
          199         200         201         202         203         204
    1   0.6177037   0.6280392   0.6288353   0.6383180   0.6505848   0.6515019
          205         206         207         208         209         210
    1   0.6550141   0.6605687   0.6692645   0.6759545   0.6771081   0.6792894
          211         212         213         214         215         216
    1   0.6809050   0.6850754   0.6919525   0.6981222   0.7040289   0.7135936
          217         218         219         220         221         222
    1   0.7242065   0.7267785   0.7298754   0.7333142   0.7444554   0.7476644
          223         224         225         226         227         228
    1   0.7606053   0.7644437   0.7680256   0.7729900   0.7779814   0.7886469
          229         230         231         232         233         234
    1   0.7924334   0.7993549   0.8008828   0.8128203   0.8138503   0.8216355
          235         236         237         238         239         240
    1   0.8241025   0.8254828   0.8337673   0.8345429   0.8399004   0.8461279
          241         242         243         244         245         246
    1   0.8501170   0.8580488   0.8722578   0.8806161   0.8837587   0.8906429
          247         248         249         250         251         252
    1   0.8993920   0.9133541   0.9149989   0.9216425   0.9285561   0.9419118
          253         254         255         256         257         258
    1   0.9503923   0.9520492   0.9768876   0.9788313   0.9855585   1.0092613
          259         260         261         262         263         264
    1   1.0142747   1.0319775   1.0360450   1.0433826   1.0613863   1.0663101
          265         266         267         268         269         270
    1   1.0761988   1.0838589   1.0964954   1.1049136   1.1082686   1.1224611
          271         272         273         274         275         276
    1   1.1280319   1.1376323   1.1418762   1.1552807   1.1663983   1.1679356
          277         278         279         280         281         282
    1   1.1746075   1.1819791   1.1872580   1.1928625   1.2052760   1.2107595
          283         284         285         286         287         288
    1   1.2197613   1.2294116   1.2383808   1.2506966   1.2668735   1.2790251
          289         290         291         292         293         294
    1   1.2840289   1.2957386   1.3030267   1.3242254   1.3317307   1.3427256
          295         296         297         298         299         300
    1   1.3508552   1.3572818   1.3663976   1.3745483   1.3796393   1.4013592
          301         302         303         304         305         306
    1   1.4132013   1.4146203   1.4245946   1.4256466   1.4447397   1.4543775
          307         308         309         310         311         312
    1   1.4612232   1.4738414   1.4770518   1.4799431   1.4939724   1.4979546
          313         314         315         316         317         318
    1   1.5139812   1.5200489   1.5293100   1.5313903   1.5495306   1.5622787
          319         320         321         322         323         324
    1   1.5653901   1.5761596   1.5816531   1.5937335   1.5998602   1.6034945
          325         326         327         328         329         330
    1   1.6135345   1.6314218   1.6475808   1.6505299   1.6642635   1.6743371
          331         332         333         334         335         336
    1   1.6840558   1.6880997   1.6958504   1.7015612   1.7098835   1.7228559
          337         338         339         340         341         342
    1   1.7357406   1.7418928   1.7497329   1.7563593   1.7598979   1.7651954
          343         344         345         346         347         348
    1   1.7672024   1.7682834   1.7794336   1.7942735   1.8029226   1.8148988
          349         350         351         352         353         354
    1   1.8325729   1.8386042   1.8552032   1.8633635   1.8649723   1.8860551
          355         356         357         358         359         360
    1   1.9027398   1.9165483   1.9248903   1.9281774   1.9384750   1.9482184
          361         362         363         364         365         366
    1   1.9615404   1.9681313   1.9749478   1.9864130   2.0013291   2.0025194
          367         368         369         370         371         372
    1   2.0165553   2.0216061   2.0374557   2.0484073   2.0499679   2.0571601
          373         374         375         376         377         378
    1   2.0641594   2.0769969   2.0880213   2.0929013   2.0974353   2.1072147
          379         380         381         382         383         384
    1   2.1218279   2.1298881   2.1532127   2.1646977   2.1671454   2.1837542
          385         386         387         388         389         390
    1   2.1873763   2.1908292   2.1969831   2.2019655   2.2076392   2.2232899
          391         392         393         394         395         396
    1   2.2253576   2.2390814   2.2407464   2.2541296   2.2615940   2.2752355
          397         398         399         400         401         402
    1   2.2924642   2.2961222   2.3029637   2.3140512   2.3308730   2.3449156
          403         404         405         406         407         408
    1   2.3580485   2.3669128   2.3735032   2.3834129   2.3907992   2.4069725
          409         410         411         412         413         414
    1   2.4138116   2.4213606   2.4238182   2.4520313   2.4611404   2.4725635
          415         416         417         418         419         420
    1   2.4943066   2.5053474   2.5266967   2.5351090   2.5429762   2.5570793
          421         422         423         424         425         426
    1   2.5678048   2.5840402   2.5924927   2.5999850   2.6051308   2.6132166
          427         428         429         430         431         432
    1   2.6317837   2.6405962   2.6481616   2.6600614   2.6704790   2.6854067
          433         434         435         436         437         438
    1   2.6964587   2.6986961   2.7055470   2.7172208   2.7251248   2.7266333
          439         440         441         442         443         444
    1   2.7414618   2.7578278   2.7689643   2.7713218   2.7797638   2.7912123
          445         446         447         448         449         450
    1   2.7961690   2.8006080   2.8102974   2.8208576   2.8284683   2.8305625
          451         452         453         454         455         456
    1   2.8397557   2.8534953   2.8602331   2.8674112   2.8733567   2.8781260
          457         458         459         460         461         462
    1   2.8982934   2.8999352   2.9043710   2.9122665   2.9191003   2.9336393
          463         464         465         466         467         468
    1   2.9445512   2.9492647   2.9516943   2.9623813   2.9729997   2.9819330
          469         470         471         472         473         474
    1   2.9865102   2.9941360   3.0080016   3.0103507   3.0133750   3.0277037
          475         476         477         478         479         480
    1   3.0337383   3.0433588   3.0523435   3.0658616   3.0720114   3.0773804
          481         482         483         484         485         486
    1   3.0851511   3.0916569   3.0991934   3.1036319   3.1141169   3.1208635
          487         488         489         490         491         492
    1   3.1300992   3.1365187   3.1555887   3.1605648   3.1677473   3.1755998
          493         494         495         496         497         498
    1   3.1816261   3.1891867   3.1923165   3.1986494   3.2133256   3.2197687
          499         500         501         502         503         504
    1   3.2237600   3.2406766   3.2433856   3.2482013   3.2580263   3.2640070
          505         506         507         508         509         510
    1   3.2726107   3.2770912   3.2848181   3.2906545   3.2922293   3.2960916
          511         512         513         514         515         516
    1   3.3164718   3.3228738   3.3271407   3.3422058   3.3455359   3.3535581
          517         518         519         520         521         522
    1   3.3622368   3.3651087   3.3746467   3.3852038   3.3939888   3.4012165
          523         524         525         526         527         528
    1   3.4061192   3.4092429   3.4233749   3.4334673   3.4431622   3.4451513
          529         530         531         532         533         534
    1   3.4529529   3.4678982   3.4705369   3.4743637   3.4855663   3.4939119
          535         536         537         538         539         540
    1   3.4943410   3.5032094   3.5074618   3.5147173   3.5229304   3.5289133
          541         542         543         544         545         546
    1   3.5315865   3.5436842   3.5540346   3.5616994   3.5637451   3.5706459
          547         548         549         550         551         552
    1   3.5775467   3.5901369   3.5925016   3.6014474   3.6188739   3.6254414
          553         554         555         556         557         558
    1   3.6480667   3.6630811   3.6690586   3.6796878   3.6875303   3.6949182
          559         560         561         562         563         564
    1   3.7039679   3.7091176   3.7427350   3.7455788   3.7606442   3.7802939
          565         566         567         568         569         570
    1   3.7823860   3.8051101   3.8326160   3.8474651   3.8542675   3.8668592
          571         572         573         574         575         576
    1   3.8926823   3.9012910   3.9297350   3.9609504   3.9699942   3.9751846
          577         578         579         580         581         582
    1   3.9852879   4.0065766   4.0179644   4.0269165   4.0483592   4.0525769
          583         584         585         586         587         588
    1   4.0665200   4.0769910   4.0980121   4.1152304   4.1172731   4.1301749
          589         590         591         592         593         594
    1   4.1578121   4.1792565   4.1855735   4.1902865   4.2026759   4.2070592
          595         596         597         598         599         600
    1   4.2335140   4.2480998   4.2581991   4.2776123   4.2809076   4.2869555
          601         602         603         604         605         606
    1   4.2955904   4.2976928   4.3083210   4.3221917   4.3415940   4.3639873
          607         608         609         610         611         612
    1   4.3894777   4.3911488   4.4158566   4.4365040   4.4568567   4.4973243
          613         614         615         616         617         618
    1   4.4991732   4.5139836   4.5238847   4.5448296   4.5695027   4.5849447
          619         620         621         622         623         624
    1   4.5914487   4.6097900   4.6292203   4.6547589   4.6683149   4.6811352
          625         626         627         628         629         630
    1   4.6976305   4.7065611   4.7396702   4.7933621   4.8150867   4.8199556
          631         632         633         634         635         636
    1   4.8496285   4.8699766   4.9155806   4.9292750   4.9407685   4.9487954
          637         638         639         640         641         642
    1   4.9650426   4.9901084   5.0096416   5.0241228   5.0606285   5.0737868
          643         644         645         646         647         648
    1   5.1104418   5.1438138   5.1559133   5.1940108   5.2403614   5.2813443
          649         650         651         652         653         654
    1   5.2839787   5.2948043   5.3066868   5.3205080   5.3262253   5.3358271
          655         656         657         658         659         660
    1   5.3475021   5.3556150   5.3794379   5.4348775   5.4539427   5.4718695
          661         662         663         664         665         666
    1   5.5038059   5.5143735   5.5305585   5.5363586   5.5371960   5.5505659
          667         668         669         670         671         672
    1   5.5838199   5.5907614   5.5918698   5.6149086   5.6380330   5.6605552
          673         674         675         676         677         678
    1   5.6947658   5.7416929   5.8116419   5.8278924   5.8407376   5.8452145
          679         680         681         682         683         684
    1   5.8825718   5.9393694   5.9482658   6.0122118   6.0436464   6.0827494
          685         686         687         688         689         690
    1   6.1352332   6.1398045   6.1966854   6.2478581   6.2952938   6.3847537
          691         692         693         694         695         696
    1   6.3909599   6.4104266   6.4409684   6.4538890   6.4683231   6.4770310
          697         698         699         700         701         702
    1   6.4781720   6.4863822   6.4930012   6.4974209   6.6263463   6.6503089
          703         704         705         706         707         708
    1   6.6695628   6.7301777   6.7329821   6.7484488   6.7756508   6.7854479
          709         710         711         712         713         714
    1   6.8312701   6.8773745   6.8985838   6.9191145   6.9205313   6.9374520
          715         716         717         718         719         720
    1   6.9515423   6.9743509   7.0162798   7.0560289   7.1053089   7.1486291
          721         722         723         724         725         726
    1   7.1692023   7.2256635   7.2515996   7.3247352   7.3796104   7.4017788
          727         728         729         730         731         732
    1   7.4786278   7.5001434   7.5565410  22.4021810  22.5514837  22.7975102
          733         734         735         736         737         738
    1  22.8136843  22.8389218  22.8851586  22.9187876  22.9729680  23.0049529
          739         740         741         742         743         744
    1  23.0512669  23.0856633  23.2212091  23.3310263  23.5439131  23.6812564
          745         746         747         748         749         750
    1  44.0201105  44.1067450  44.1388789  44.1731691  44.2360949  44.6541215
 SCF time:   CPU 4990.47s  wall 442.00s 
 DFT Correlation          Energy =  -6.08976731390155
 DFT Exchange             Energy = -93.86070178198672
 HF Exchange              Energy = -36.49072864697533
 One-Electron             Energy = -4506.69143115352108
 SCRF wf-dependent energy Energy =  -0.75816876823251
 Total Coulomb            Energy = 2052.04851745954693
 Nuclear repulsion Energy = 1562.92960957263927

************** Final PCM Free Energy Summary **************
 G_electrostatic  =      -0.04842112 hartree =     -30.38471282 kcal/mol
 G_cavitation     =       0.00000000 hartree =       0.00000000 kcal/mol
 G_dispersion     =       0.00000000 hartree =       0.00000000 kcal/mol
 G_repulsion      =       0.00000000 hartree =       0.00000000 kcal/mol
 --------------------------------------------------
 Non-electrostatic Free Energy =       0.00000000 hartree =       0.00000000 kcal/mol
 Total                         =      -0.04842112 hartree =     -30.38471282 kcal/mol
 --------------------------------------------------
 SCF Energy (H0 + V/2)                       =   -1028.91267063 
 Solute Internal Energy (H0)                 =   -1028.86424951 
 Total Free Energy (H0 + V/2 + non-elec)     =   -1028.91267063 hartree
                                             = -645652.44880537 kcal/mol
***********************************************************

 SCF   energy = -1028.91267063
 Total energy = -1028.91267063
 MAX_CIS_SUBSPACE fits in available memory
 Direct TDDFT/TDA calculation will be performed
 Exchange:     0.1900 Hartree-Fock + 0.3500 B88 + 0.4600 muB88 + LR-HF
 Correlation:  0.1900 VWN5 + 0.8100 LYP
 Using SG-1 standard quadrature grid
 Triplet excitation energies requested
 Singlet excitation energies requested
 Adding PCM contribution to the XC response (LR-PCM)
 Optical dielectric constant (eps_inf) =  1.78
 CIS energy converged when residual is below 10e- 6
 ---------------------------------------------------
 Iter    Rts Conv    Rts Left    Ttl Dev     Max Dev
 ---------------------------------------------------
   1         0           7      0.000960    0.000147
   2         0           7      0.000402    0.000090
   3         0           7      0.000204    0.000071
   4         0           7      0.000129    0.000050
   5         1           6      0.000129    0.000085
   6         3           4      0.000073    0.000056
   7         3           4      0.000057    0.000049
   8         5           2      0.000021    0.000018
   9         6           1      0.000006    0.000005
  10         6           1      0.000003    0.000002
  11         7           0      0.000002    0.000000    Roots Converged
 ---------------------------------------------------
 Triplets done: starting singlet calculation
 ---------------------------------------------------
 Iter    Rts Conv    Rts Left    Ttl Dev     Max Dev
 ---------------------------------------------------
  12         0           7      0.002196    0.000433
  13         0           7      0.000688    0.000175
  14         0           7      0.000331    0.000063
  15         0           7      0.000190    0.000058
  16         0           7      0.000107    0.000050
  17         2           5      0.000060    0.000037
  18         3           4      0.000032    0.000021
  19         5           2      0.000017    0.000011
  20         6           1      0.000010    0.000006
  21         6           1      0.000007    0.000003
  22         6           1      0.000005    0.000001
  23         7           0      0.000005    0.000001    Roots Converged
 ---------------------------------------------------
 
 ---------------------------------------------------
         TDDFT/TDA Excitation Energies              
 ---------------------------------------------------

 Excited state   1: excitation energy (eV) =       1.5968
 Total energy for state   1:                 -1028.85399016 au
    Multiplicity: Triplet
    Trans. Mom.:  0.0000 X   0.0000 Y   0.0000 Z
    Strength   :     0.0000000000
    D(   70) --> V(    1) amplitude =  0.0972
    D(   72) --> V(    1) amplitude = -0.1273
    D(   73) --> V(    2) amplitude = -0.0842
    D(   74) --> V(    1) amplitude =  0.9643

 Excited state   2: excitation energy (eV) =       2.5489
 Total energy for state   2:                 -1028.81900097 au
    Multiplicity: Singlet
    Trans. Mom.: -0.0094 X   0.1161 Y  -2.6668 Z
    Strength   :     0.4449634488
    D(   73) --> V(    1) amplitude =  0.1513
    D(   74) --> V(    1) amplitude =  0.9687
    D(   74) --> V(    2) amplitude = -0.0855

 Excited state   3: excitation energy (eV) =       2.6638
 Total energy for state   3:                 -1028.81477814 au
    Multiplicity: Triplet
    Trans. Mom.:  0.0000 X   0.0000 Y   0.0000 Z
    Strength   :     0.0000000000
    D(   68) --> V(    1) amplitude =  0.0801
    D(   69) --> V(    1) amplitude = -0.1285
    D(   70) --> V(    2) amplitude =  0.0759
    D(   72) --> V(    1) amplitude =  0.1654
    D(   73) --> V(    1) amplitude =  0.8771
    D(   74) --> V(    2) amplitude = -0.3399

 Excited state   4: excitation energy (eV) =       3.4286
 Total energy for state   4:                 -1028.78667280 au
    Multiplicity: Triplet
    Trans. Mom.:  0.0000 X   0.0000 Y   0.0000 Z
    Strength   :     0.0000000000
    D(   66) --> V(    1) amplitude = -0.0878
    D(   70) --> V(    1) amplitude = -0.3607
    D(   72) --> V(    1) amplitude =  0.7153
    D(   72) --> V(    7) amplitude = -0.0770
    D(   73) --> V(    2) amplitude = -0.3821
    D(   73) --> V(    7) amplitude =  0.1608
    D(   73) --> V(    9) amplitude =  0.0787
    D(   74) --> V(    1) amplitude =  0.1146
    D(   74) --> V(    2) amplitude =  0.2339
    D(   74) --> V(   10) amplitude = -0.0728
    D(   74) --> V(   11) amplitude = -0.1471

 Excited state   5: excitation energy (eV) =       3.5303
 Total energy for state   5:                 -1028.78293300 au
    Multiplicity: Singlet
    Trans. Mom.: -0.0221 X   0.3324 Y   2.5349 Z
    Strength   :     0.5653603153
    D(   68) --> V(    1) amplitude =  0.0810
    D(   69) --> V(    1) amplitude = -0.0743
    D(   72) --> V(    1) amplitude =  0.1566
    D(   73) --> V(    1) amplitude =  0.9457
    D(   74) --> V(    1) amplitude = -0.1541
    D(   74) --> V(    2) amplitude = -0.1089

 Excited state   6: excitation energy (eV) =       3.5411
 Total energy for state   6:                 -1028.78253787 au
    Multiplicity: Triplet
    Trans. Mom.:  0.0000 X   0.0000 Y   0.0000 Z
    Strength   :     0.0000000000
    D(   71) --> V(    1) amplitude =  0.9351
    D(   71) --> V(    2) amplitude = -0.1491
    D(   71) --> V(    7) amplitude =  0.1869
    D(   71) --> V(    8) amplitude =  0.0739
    D(   71) --> V(    9) amplitude =  0.0996
    D(   71) --> V(   11) amplitude = -0.1241
    D(   71) --> V(   28) amplitude = -0.0846

 Excited state   7: excitation energy (eV) =       3.5873
 Total energy for state   7:                 -1028.78084051 au
    Multiplicity: Triplet
    Trans. Mom.:  0.0000 X   0.0000 Y   0.0000 Z
    Strength   :     0.0000000000
    D(   68) --> V(    1) amplitude = -0.1029
    D(   69) --> V(    1) amplitude =  0.0733
    D(   70) --> V(    1) amplitude = -0.1139
    D(   70) --> V(    2) amplitude =  0.0809
    D(   72) --> V(    1) amplitude = -0.1920
    D(   72) --> V(    2) amplitude = -0.1866
    D(   73) --> V(    1) amplitude =  0.3216
    D(   73) --> V(    2) amplitude =  0.1262
    D(   73) --> V(    7) amplitude =  0.1175
    D(   74) --> V(    2) amplitude =  0.7371
    D(   74) --> V(    3) amplitude =  0.1323
    D(   74) --> V(    4) amplitude =  0.1088
    D(   74) --> V(    7) amplitude =  0.3095
    D(   74) --> V(    8) amplitude =  0.1108
    D(   74) --> V(    9) amplitude =  0.1515

 Excited state   8: excitation energy (eV) =       3.7274
 Total energy for state   8:                 -1028.77569241 au
    Multiplicity: Singlet
    Trans. Mom.: -0.0177 X  -0.0243 Y  -0.1201 Z
    Strength   :     0.0013995141
    D(   71) --> V(    1) amplitude =  0.9525
    D(   71) --> V(    2) amplitude = -0.1533
    D(   71) --> V(    7) amplitude =  0.1608
    D(   71) --> V(    9) amplitude =  0.0848
    D(   71) --> V(   11) amplitude = -0.0921
    D(   71) --> V(   28) amplitude = -0.0719

 Excited state   9: excitation energy (eV) =       3.8583
 Total energy for state   9:                 -1028.77087906 au
    Multiplicity: Triplet
    Trans. Mom.:  0.0000 X   0.0000 Y   0.0000 Z
    Strength   :     0.0000000000
    D(   68) --> V(    1) amplitude = -0.0861
    D(   70) --> V(    1) amplitude =  0.6227
    D(   70) --> V(    2) amplitude =  0.1927
    D(   70) --> V(    3) amplitude = -0.1198
    D(   70) --> V(    4) amplitude = -0.1090
    D(   70) --> V(    7) amplitude = -0.1019
    D(   70) --> V(   11) amplitude = -0.0771
    D(   72) --> V(    1) amplitude =  0.4332
    D(   72) --> V(    2) amplitude =  0.2700
    D(   72) --> V(    3) amplitude = -0.1910
    D(   72) --> V(    4) amplitude = -0.1775
    D(   73) --> V(    2) amplitude =  0.2660
    D(   74) --> V(    2) amplitude =  0.1162
    D(   74) --> V(    7) amplitude =  0.1821
    D(   74) --> V(    9) amplitude =  0.0850

 Excited state  10: excitation energy (eV) =       4.1075
 Total energy for state  10:                 -1028.76172097 au
    Multiplicity: Triplet
    Trans. Mom.:  0.0000 X   0.0000 Y   0.0000 Z
    Strength   :     0.0000000000
    D(   57) --> V(    1) amplitude = -0.1009
    D(   68) --> V(    1) amplitude = -0.4375
    D(   68) --> V(    2) amplitude =  0.1040
    D(   69) --> V(    1) amplitude = -0.6550
    D(   70) --> V(    1) amplitude = -0.1266
    D(   70) --> V(    2) amplitude = -0.1733
    D(   72) --> V(    1) amplitude = -0.0769
    D(   72) --> V(    2) amplitude =  0.0989
    D(   73) --> V(    1) amplitude = -0.1088
    D(   73) --> V(    2) amplitude =  0.1700
    D(   73) --> V(    3) amplitude =  0.0881
    D(   73) --> V(    4) amplitude =  0.0783
    D(   73) --> V(    7) amplitude =  0.1508
    D(   73) --> V(    9) amplitude =  0.0753
    D(   74) --> V(    2) amplitude = -0.1529
    D(   74) --> V(    7) amplitude =  0.1914
    D(   74) --> V(    8) amplitude =  0.0817
    D(   74) --> V(    9) amplitude =  0.1087
    D(   74) --> V(   10) amplitude = -0.0805
    D(   74) --> V(   11) amplitude = -0.2058
    D(   74) --> V(   13) amplitude =  0.0973
    D(   74) --> V(   28) amplitude = -0.1050

 Excited state  11: excitation energy (eV) =       4.2665
 Total energy for state  11:                 -1028.75587983 au
    Multiplicity: Singlet
    Trans. Mom.: -0.0758 X  -0.0991 Y  -0.1877 Z
    Strength   :     0.0053077204
    D(   70) --> V(    1) amplitude =  0.1187
    D(   70) --> V(    2) amplitude =  0.0763
    D(   72) --> V(    1) amplitude =  0.8835
    D(   72) --> V(    2) amplitude =  0.1246
    D(   73) --> V(    1) amplitude = -0.1564
    D(   73) --> V(    2) amplitude = -0.1288
    D(   73) --> V(    3) amplitude =  0.1233
    D(   73) --> V(    4) amplitude =  0.1160
    D(   74) --> V(    2) amplitude = -0.2084
    D(   74) --> V(    3) amplitude = -0.1420
    D(   74) --> V(    4) amplitude = -0.1225

 Excited state  12: excitation energy (eV) =       4.4987
 Total energy for state  12:                 -1028.74734666 au
    Multiplicity: Singlet
    Trans. Mom.: -0.0808 X   0.3421 Y   0.9652 Z
    Strength   :     0.1163062525
    D(   69) --> V(    1) amplitude = -0.0962
    D(   70) --> V(    1) amplitude =  0.4724
    D(   70) --> V(    2) amplitude =  0.0871
    D(   72) --> V(    1) amplitude =  0.1375
    D(   73) --> V(    1) amplitude =  0.1058
    D(   73) --> V(    2) amplitude =  0.1625
    D(   73) --> V(    3) amplitude =  0.0845
    D(   73) --> V(   11) amplitude =  0.1132
    D(   74) --> V(    2) amplitude =  0.7705
    D(   74) --> V(    7) amplitude =  0.1778
    D(   74) --> V(    9) amplitude =  0.0841

 Excited state  13: excitation energy (eV) =       4.9203
 Total energy for state  13:                 -1028.73185216 au
    Multiplicity: Singlet
    Trans. Mom.:  0.1082 X  -1.1749 Y  -0.0539 Z
    Strength   :     0.1681515445
    D(   68) --> V(    1) amplitude =  0.0810
    D(   69) --> V(    1) amplitude =  0.1153
    D(   70) --> V(    1) amplitude =  0.7533
    D(   72) --> V(    1) amplitude = -0.2815
    D(   72) --> V(    2) amplitude =  0.1108
    D(   72) --> V(    3) amplitude = -0.0845
    D(   72) --> V(    4) amplitude = -0.0722
    D(   73) --> V(    3) amplitude =  0.1351
    D(   73) --> V(    4) amplitude =  0.1104
    D(   73) --> V(   11) amplitude = -0.0810
    D(   74) --> V(    2) amplitude = -0.4013
    D(   74) --> V(    3) amplitude = -0.1646
    D(   74) --> V(    4) amplitude = -0.1259
    D(   74) --> V(   11) amplitude = -0.0881

 Excited state  14: excitation energy (eV) =       5.1734
 Total energy for state  14:                 -1028.72255215 au
    Multiplicity: Singlet
    Trans. Mom.:  0.0271 X  -0.1969 Y   0.1238 Z
    Strength   :     0.0069515970
    D(   70) --> V(    1) amplitude =  0.0845
    D(   73) --> V(    5) amplitude = -0.1152
    D(   73) --> V(    6) amplitude = -0.1368
    D(   74) --> V(    3) amplitude =  0.5842
    D(   74) --> V(    4) amplitude = -0.2476
    D(   74) --> V(    5) amplitude = -0.6003
    D(   74) --> V(    6) amplitude = -0.1647
    D(   74) --> V(    8) amplitude =  0.1486
    D(   74) --> V(   10) amplitude =  0.2067
    D(   74) --> V(   11) amplitude = -0.0980
    D(   74) --> V(   12) amplitude =  0.1357
    D(   74) --> V(   15) amplitude = -0.0909
 
 ---------------------------------------------------

 Direct TDDFT calculation will be performed
 Exchange:     0.1900 Hartree-Fock + 0.3500 B88 + 0.4600 muB88 + LR-HF
 Correlation:  0.1900 VWN5 + 0.8100 LYP
 Using SG-1 standard quadrature grid
 ---------------------------------------------------
 Iter    Rts Conv    Rts Left    Ttl Dev     Max Dev
 ---------------------------------------------------
   1         0           7      0.001024    0.000156
   2         0           7      0.000321    0.000073
   3         0           7      0.000178    0.000046
   4         0           7      0.000107    0.000036
   5         0           7      0.000073    0.000029
   6         2           5      0.000037    0.000014
   7         3           4      0.000024    0.000009
   8         4           3      0.000013    0.000006
   9         5           2      0.000011    0.000005
  10         6           1      0.000006    0.000002
  11         6           1      0.000005    0.000002
[...]
      XZZZ     -64.0609   YZZZ     654.9462   ZZZZ   -7890.3228
    5th-Order Moments (Debye-Ang^4)
       500      -4.8427    410      11.0954    320      29.8746
       230      -7.9259    140    -125.5178    050     926.8613
       401     -61.5472    311    -317.5016    221     235.5150
       131    -189.3525    041    1679.4455    302    -136.4534
       212     543.1249    122      -4.4548    032     948.6815
       203    -652.2976    113    -105.6872    023     766.0784
       104    -153.0523    014   -3358.7386    005   -9553.6589
 -----------------------------------------------------------------
 -----------------------------------------------------------------
                 RPA Excited-State Multipoles, State    4   
                  LMN = < X^L Y^M Z^N >
 -----------------------------------------------------------------
    Charge (ESU x 10^10)
                -0.0000
    Dipole Moment (Debye)
         X      -0.7392      Y      -5.8053      Z       7.3806
       Tot       9.4192
    Quadrupole Moments (Debye-Ang)
        XX    -123.6447     XY       3.3317     YY    -101.8110
        XZ      -4.0906     YZ      12.7276     ZZ    -133.0615
    Octopole Moments (Debye-Ang^2)
       XXX      -3.1342    XXY      -4.8635    XYY     -11.1792
       YYY      11.0586    XXZ       2.0574    XYZ      13.2578
       YYZ      59.3854    XZZ       0.7867    YZZ    -221.5420
       ZZZ      52.2134
    Hexadecapole Moments (Debye-Ang^3)
      XXXX    -168.8435   XXXY       6.6918   XXYY    -355.0345
      XYYY      20.3587   YYYY   -1585.8547   XXXZ      51.8500
      XXYZ     -28.6363   XYYZ       6.2340   YYYZ    -119.5025
      XXZZ   -1424.8557   XYZZ      42.7693   YYZZ   -1574.6439
      XZZZ     -79.1680   YZZZ     652.3136   ZZZZ   -8044.5614
    5th-Order Moments (Debye-Ang^4)
       500      -6.2753    410      11.8040    320      28.8411
       230      -9.3914    140    -125.8585    050     872.1422
       401     -58.2206    311    -316.5526    221     237.3437
       131    -179.2850    041    1658.2041    302    -142.4857
       212     532.2398    122      -6.2787    032     771.1671
       203    -611.2295    113     -81.1752    023     812.5584
       104    -198.7230    014   -3895.0052    005   -8030.0014
 -----------------------------------------------------------------
 -----------------------------------------------------------------
                 RPA Excited-State Multipoles, State    5   
                  LMN = < X^L Y^M Z^N >
 -----------------------------------------------------------------
    Charge (ESU x 10^10)
                -0.0000
    Dipole Moment (Debye)
         X      -0.4486      Y      -6.3706      Z       7.7243
       Tot      10.0225
    Quadrupole Moments (Debye-Ang)
        XX    -123.8695     XY       3.1927     YY    -103.4849
        XZ      -3.6146     YZ      19.8696     ZZ    -122.1275
    Octopole Moments (Debye-Ang^2)
       XXX      -2.5964    XXY      -5.5954    XYY     -10.7235
       YYY      12.2926    XXZ       2.1477    XYZ      12.4894
       YYZ      61.6809    XZZ       5.4553    YZZ    -219.3452
       ZZZ      51.5442
    Hexadecapole Moments (Debye-Ang^3)
      XXXX    -169.6461   XXXY       6.8695   XXYY    -356.9726
      XYYY      19.3114   YYYY   -1596.1881   XXXZ      52.3994
      XXYZ     -23.5072   XYYZ       8.4499   YYYZ     -93.3515
      XXZZ   -1420.6037   XYZZ      40.5545   YYZZ   -1595.1126
      XZZZ     -69.8834   YZZZ     735.8706   ZZZZ   -7755.5107
    5th-Order Moments (Debye-Ang^4)
       500      -4.4804    410       9.8653    320      30.2874
       230     -11.7648    140    -125.1198    050     897.8430
       401     -56.9576    311    -317.3410    221     240.9290
       131    -184.9417    041    1682.7379    302    -134.2476
       212     532.2003    122       2.5968    032     817.1818
       203    -618.6523    113     -97.0798    023     796.6055
       104    -118.3663    014   -3845.1924    005   -7931.3951
 -----------------------------------------------------------------
 -----------------------------------------------------------------
                 RPA Excited-State Multipoles, State    6   
                  LMN = < X^L Y^M Z^N >
 -----------------------------------------------------------------
    Charge (ESU x 10^10)
                -0.0000
    Dipole Moment (Debye)
         X      -0.6927      Y      -3.9369      Z       6.0607
       Tot       7.2603
    Quadrupole Moments (Debye-Ang)
        XX    -123.7728     XY       3.0816     YY     -99.5764
        XZ      -3.0115     YZ       9.8322     ZZ    -139.9887
    Octopole Moments (Debye-Ang^2)
       XXX      -3.1046    XXY      -3.8932    XYY     -10.7790
       YYY      20.0853    XXZ       2.1148    XYZ      13.1292
       YYZ      50.4591    XZZ       1.0523    YZZ    -178.8781
       ZZZ      34.6280
    Hexadecapole Moments (Debye-Ang^3)
      XXXX    -169.0613   XXXY       6.4615   XXYY    -353.5755
      XYYY      19.4158   YYYY   -1582.9059   XXXZ      53.5778
      XXYZ     -29.5910   XYYZ      10.3010   YYYZ    -130.9973
      XXZZ   -1433.1971   XYZZ      40.2841   YYZZ   -1574.2162
      XZZZ     -57.5166   YZZZ     565.6764   ZZZZ   -8260.6835
    5th-Order Moments (Debye-Ang^4)
       500      -6.1318    410      13.6227    320      29.6075
       230      -3.8451    140    -124.8576    050     943.4987
       401     -55.8308    311    -316.1041    221     234.2509
       131    -184.4284    041    1634.8507    302    -142.1388
       212     555.8470    122      -3.2062    032     960.1437
       203    -595.1046    113     -93.0730    023     693.2070
       104    -210.7649    014   -2959.5118    005   -8382.9756
 -----------------------------------------------------------------
 -----------------------------------------------------------------
                 RPA Excited-State Multipoles, State    7   
                  LMN = < X^L Y^M Z^N >
 -----------------------------------------------------------------
    Charge (ESU x 10^10)
                -0.0000
    Dipole Moment (Debye)
         X      -0.9523      Y      -0.0071      Z      -4.9833
       Tot       5.0734
    Quadrupole Moments (Debye-Ang)
        XX    -125.6604     XY       2.8992     YY     -99.2788
        XZ      -1.4129     YZ     -11.6292     ZZ    -100.4984
    Octopole Moments (Debye-Ang^2)
       XXX      -3.1248    XXY      -4.4851    XYY     -11.7900
       YYY      35.3938    XXZ       3.5550    XYZ      13.8699
       YYZ      21.9284    XZZ      -4.5853    YZZ     -71.5977
       ZZZ    -241.5443
    Hexadecapole Moments (Debye-Ang^3)
      XXXX    -172.6067   XXXY       7.1691   XXYY    -359.0989
      XYYY      18.5648   YYYY   -1588.8904   XXXZ      54.4210
      XXYZ     -30.1807   XYYZ      16.8541   YYYZ    -212.1184
      XXZZ   -1443.6664   XYZZ      31.4727   YYZZ   -1452.5705
      XZZZ     -25.1928   YZZZ     109.4466   ZZZZ   -7165.3303
    5th-Order Moments (Debye-Ang^4)
       500      -5.7250    410      11.0881    320      29.8700
       230      -7.4704    140    -129.5126    050    1008.4571
       401     -51.9939    311    -318.4743    221     240.2424
       131    -181.8562    041    1531.9558    302    -143.4799
       212     564.5114    122     -24.0965    032    1371.2672
       203    -602.0362    113     -64.6701    023     -38.9513
       104    -330.0034    014    -602.9859    005  -15488.3994
 -----------------------------------------------------------------
 -----------------------------------------------------------------
                 RPA Excited-State Multipoles, State    8   
                  LMN = < X^L Y^M Z^N >
 -----------------------------------------------------------------
    Charge (ESU x 10^10)
                -0.0000
    Dipole Moment (Debye)
         X      -0.7230      Y      -4.6247      Z      11.5901
       Tot      12.4996
    Quadrupole Moments (Debye-Ang)
        XX    -123.4817     XY       4.0709     YY    -100.1838
        XZ      -3.2028     YZ      11.4549     ZZ    -141.5823
    Octopole Moments (Debye-Ang^2)
       XXX      -3.0819    XXY      -3.9654    XYY     -11.2968
       YYY      15.8847    XXZ       5.3659    XYZ      15.1103
       YYZ      73.8779    XZZ       0.5752    YZZ    -192.7249
       ZZZ      93.9934
    Hexadecapole Moments (Debye-Ang^3)
      XXXX    -168.3315   XXXY       7.9130   XXYY    -353.6322
      XYYY      23.3308   YYYY   -1588.0618   XXXZ      53.7494
      XXYZ     -29.0489   XYYZ       7.6419   YYYZ    -139.1077
      XXZZ   -1428.1248   XYZZ      53.1874   YYZZ   -1564.5218
      XZZZ     -65.8160   YZZZ     634.0244   ZZZZ   -8451.6486
    5th-Order Moments (Debye-Ang^4)
       500      -5.6568    410      14.4069    320      29.4228
       230      -4.6726    140    -129.1021    050     905.1502
       401     -51.7732    311    -313.0221    221     245.2789
       131    -176.9687    041    1742.7870    302    -141.3464
       212     550.9592    122     -16.2941    032     869.3569
       203    -570.0865    113     -60.9211    023    1056.7280
       104    -220.8496    014   -3323.4778    005   -8063.1322
 -----------------------------------------------------------------
 -----------------------------------------------------------------
                 RPA Excited-State Multipoles, State    9   
                  LMN = < X^L Y^M Z^N >
 -----------------------------------------------------------------
    Charge (ESU x 10^10)
                -0.0000
    Dipole Moment (Debye)
         X      -0.9523      Y      -0.0097      Z      -5.7999
       Tot       5.8775
    Quadrupole Moments (Debye-Ang)
        XX    -125.7498     XY       2.8913     YY     -99.4156
        XZ      -1.4036     YZ     -12.0299     ZZ     -97.4679
    Octopole Moments (Debye-Ang^2)
       XXX      -3.0805    XXY      -4.7042    XYY     -11.7753
       YYY      34.7597    XXZ       3.4355    XYZ      13.8860
       YYZ      20.9390    XZZ      -4.6227    YZZ     -69.1358
       ZZZ    -259.3233
    Hexadecapole Moments (Debye-Ang^3)
      XXXX    -173.0309   XXXY       7.2327   XXYY    -359.6961
      XYYY      18.5203   YYYY   -1590.7086   XXXZ      54.2719
      XXYZ     -29.6313   XYYZ      16.8660   YYYZ    -211.6100
      XXZZ   -1443.4853   XYZZ      31.1120   YYZZ   -1448.1128
      XZZZ     -24.9550   YZZZ      98.8118   ZZZZ   -7100.9042
    5th-Order Moments (Debye-Ang^4)
       500      -5.3951    410      10.0698    320      30.0742
       230      -9.2686    140    -129.5878    050    1000.9646
       401     -51.1593    311    -318.7082    221     241.4234
       131    -181.7577    041    1531.9903    302    -142.8672
       212     562.5086    122     -24.2354    032    1373.7316
       203    -605.0937    113     -63.5395    023     -67.1093
       104    -330.3297    014    -550.5740    005  -15847.1094
 -----------------------------------------------------------------
 -----------------------------------------------------------------
                 RPA Excited-State Multipoles, State   10   
                  LMN = < X^L Y^M Z^N >
 -----------------------------------------------------------------
    Charge (ESU x 10^10)
                -0.0000
    Dipole Moment (Debye)
         X      -0.7833      Y      -1.8931      Z       5.4432
       Tot       5.8160
    Quadrupole Moments (Debye-Ang)
        XX    -123.6937     XY       2.9033     YY     -98.7512
        XZ      -2.7395     YZ      11.4798     ZZ    -151.9716
    Octopole Moments (Debye-Ang^2)
       XXX      -3.2678    XXY      -2.6273    XYY     -11.4134
       YYY      33.5448    XXZ       1.0466    XYZ      11.9895
       YYZ      55.3379    XZZ       2.5515    YZZ    -182.2934
       ZZZ      46.3325
    Hexadecapole Moments (Debye-Ang^3)
      XXXX    -168.9335   XXXY       6.3359   XXYY    -353.5579
      XYYY      17.4668   YYYY   -1563.4630   XXXZ      54.1006
      XXYZ     -29.3854   XYYZ      10.7295   YYYZ    -118.1645
      XXZZ   -1436.1125   XYZZ      40.6355   YYZZ   -1615.2703
      XZZZ     -55.4632   YZZZ     655.4191   ZZZZ   -8495.1422
    5th-Order Moments (Debye-Ang^4)
       500      -6.5579    410      15.7133    320      28.8202
       230       2.5399    140    -130.1969    050    1057.2971
       401     -58.4882    311    -317.6882    221     235.5343
       131    -189.9024    041    1665.0492    302    -139.6355
       212     555.9660    122       2.0866    032     945.8097
       203    -605.8764    113    -107.3269    023     786.3366
       104    -171.7707    014   -3189.2261    005   -8247.6070
 -----------------------------------------------------------------
 -----------------------------------------------------------------
                 RPA Excited-State Multipoles, State   11   
                  LMN = < X^L Y^M Z^N >
 -----------------------------------------------------------------
    Charge (ESU x 10^10)
                -0.0000
    Dipole Moment (Debye)
         X      -1.0462      Y      -7.3595      Z      15.9088
       Tot      17.5598
    Quadrupole Moments (Debye-Ang)
        XX    -123.6182     XY       4.4346     YY     -99.6314
        XZ      -4.7316     YZ       8.5393     ZZ    -133.2290
    Octopole Moments (Debye-Ang^2)
       XXX      -3.4831    XXY      -5.7335    XYY     -12.1711
       YYY       5.4867    XXZ       7.6347    XYZ      16.3456
       YYZ      85.0771    XZZ      -3.8226    YZZ    -225.5097
       ZZZ     150.8699
    Hexadecapole Moments (Debye-Ang^3)
      XXXX    -168.8001   XXXY       8.7167   XXYY    -353.9210
      XYYY      24.5708   YYYY   -1580.0520   XXXZ      51.3474
      XXYZ     -30.5727   XYYZ       3.1247   YYYZ    -144.5876
      XXZZ   -1424.4405   XYZZ      58.4637   YYZZ   -1539.7962
      XZZZ     -87.7579   YZZZ     575.3744   ZZZZ   -8259.9550
    5th-Order Moments (Debye-Ang^4)
       500      -6.7322    410      10.7664    320      28.1626
       230     -12.9820    140    -134.3120    050     847.2204
       401     -47.9665    311    -311.3073    221     253.0669
       131    -169.0669    041    1800.2041    302    -148.1430
       212     531.3721    122     -27.8601    032     732.4053
       203    -540.3611    113     -37.0336    023    1199.6548
       104    -286.4712    014   -3856.7114    005   -6965.0646
 -----------------------------------------------------------------
 -----------------------------------------------------------------
                 RPA Excited-State Multipoles, State   12   
                  LMN = < X^L Y^M Z^N >
 -----------------------------------------------------------------
    Charge (ESU x 10^10)
                -0.0000
    Dipole Moment (Debye)
         X      -0.6099      Y      -3.8815      Z       5.1694
       Tot       6.4932
    Quadrupole Moments (Debye-Ang)
        XX    -123.9084     XY       3.1148     YY    -100.9182
        XZ      -2.5551     YZ       9.0449     ZZ    -138.9828
    Octopole Moments (Debye-Ang^2)
       XXX      -2.9059    XXY      -3.9432    XYY     -10.7073
       YYY      20.8289    XXZ       2.0066    XYZ      12.9306
       YYZ      50.9214    XZZ       1.7716    YZZ    -160.9419
       ZZZ      25.7863
    Hexadecapole Moments (Debye-Ang^3)
      XXXX    -169.7710   XXXY       6.3952   XXYY    -354.6639
      XYYY      19.8724   YYYY   -1597.1439   XXXZ      54.3773
      XXYZ     -29.7140   XYYZ      12.0026   YYYZ    -142.1568
      XXZZ   -1434.1881   XYZZ      41.2253   YYZZ   -1584.2445
      XZZZ     -47.1541   YZZZ     545.4167   ZZZZ   -8263.5322
    5th-Order Moments (Debye-Ang^4)
       500      -5.3914    410      13.8778    320      29.9290
       230      -3.7920    140    -124.9250    050     948.6135
       401     -55.2888    311    -316.2682    221     234.4043
       131    -187.8240    041    1650.8204    302    -140.1689
       212     566.6393    122      -5.3904    032    1050.9668
       203    -590.0996    113     -96.0168    023     727.1305
       104    -198.5040    014   -2590.6543    005   -8610.2927
 -----------------------------------------------------------------
 -----------------------------------------------------------------
                 RPA Excited-State Multipoles, State   13   
                  LMN = < X^L Y^M Z^N >
 -----------------------------------------------------------------
    Charge (ESU x 10^10)
                -0.0000
    Dipole Moment (Debye)
         X      -0.3930      Y      -6.0435      Z       9.7604
       Tot      11.4867
    Quadrupole Moments (Debye-Ang)
        XX    -123.9643     XY       2.9322     YY    -102.0674
        XZ      -2.9410     YZ      20.4813     ZZ    -122.4619
    Octopole Moments (Debye-Ang^2)
       XXX      -2.6454    XXY      -5.1716    XYY      -9.9660
       YYY       7.7188    XXZ       3.7635    XYZ      13.1686
       YYZ      49.9250    XZZ       7.5731    YZZ    -206.5255
       ZZZ     109.1295
    Hexadecapole Moments (Debye-Ang^3)
      XXXX    -170.0191   XXXY       6.4655   XXYY    -356.4379
      XYYY      17.4926   YYYY   -1586.4049   XXXZ      53.7916
      XXYZ     -23.7831   XYYZ       7.7003   YYYZ     -74.7512
      XXZZ   -1423.4316   XYZZ      36.5497   YYZZ   -1558.0675
      XZZZ     -53.9914   YZZZ     759.4773   ZZZZ   -7742.5613
    5th-Order Moments (Debye-Ang^4)
       500      -4.9710    410      10.9119    320      30.8537
       230     -12.3866    140    -118.6018    050     841.8627
       401     -53.9325    311    -316.4677    221     235.3119
       131    -180.2543    041    1578.3316    302    -131.6700
       212     543.8150    122      15.9790    032     781.5027
       203    -573.6814    113     -83.6992    023     635.4992
       104     -76.1180    014   -3580.9281    005   -6237.6742
 -----------------------------------------------------------------
 -----------------------------------------------------------------
                 RPA Excited-State Multipoles, State   14   
                  LMN = < X^L Y^M Z^N >
 -----------------------------------------------------------------
    Charge (ESU x 10^10)
                 0.0000
    Dipole Moment (Debye)
         X      -0.4198      Y      -3.7645      Z       5.1309
       Tot       6.3776
    Quadrupole Moments (Debye-Ang)
        XX    -135.0477     XY       1.0898     YY    -107.4143
        XZ      -1.8470     YZ      11.5722     ZZ    -148.0141
    Octopole Moments (Debye-Ang^2)
       XXX      -2.0442    XXY      -6.4732    XYY     -10.9731
       YYY       9.4753    XXZ      19.3799    XYZ      13.3222
       YYZ      63.5682    XZZ      -0.6517    YZZ    -196.4409
       ZZZ      77.0714
    Hexadecapole Moments (Debye-Ang^3)
      XXXX    -262.7692   XXXY      -0.9553   XXYY    -395.3839
      XYYY       7.2385   YYYY   -1738.9897   XXXZ      64.3079
      XXYZ     -25.4256   XYYZ      16.2600   YYYZ    -107.3850
      XXZZ   -1532.2285   XYZZ      29.7438   YYZZ   -1702.8025
      XZZZ     -18.0319   YZZZ     594.9567   ZZZZ   -8544.8956
    5th-Order Moments (Debye-Ang^4)
       500      -0.7692    410      -4.8685    320      29.9035
       230     -41.2678    140    -127.5807    050     602.9503
       401      96.1486    311    -321.5478    221     303.5898
       131    -185.5013    041    1950.8826    302    -159.1142
       212     536.5132    122      -9.6998    032     836.1841
       203    -276.8916    113     -90.8174    023    1101.9301
       104    -289.3892    014   -3452.5689    005   -5972.0940
 -----------------------------------------------------------------
 Total job time:  3992.72s(wall), 53889.03s(cpu) 
 Fri Jan 31 03:21:58 2025

        *************************************************************
        *                                                           *
        *  Thank you very much for using Q-Chem.  Have a nice day.  *
        *                                                           *
        *************************************************************


