
Running Job 1 of 1 Cyanidin_H_tddft_full.in
qchem Cyanidin_H_tddft_full.in_1631631.0 /scratch/brussel/103/vsc10365/qchem1631631/ 1
/apps/brussel/RL8/skylake/software/Q-Chem/6.2.0/exe/qcprog.exe_s Cyanidin_H_tddft_full.in_1631631.0 /scratch/brussel/103/vsc10365/qchem1631631/
                  Welcome to Q-Chem
     A Quantum Leap Into The Future Of Chemistry


 Q-Chem 6.2, Q-Chem, Inc., Pleasanton, CA (2024)

 License issued to: SRG Prof. Dr. Frank De Proft, Vrije Universiteit Brussel

 E. Epifanovsky,  A. T. B. Gilbert,  Xintian Feng,  Joonho Lee,  Yuezhi Mao,  
 N. Mardirossian,  P. Pokhilko,  A. White,  M. Wormit,  M. P. Coons,  
 A. L. Dempwolff,  Zhengting Gan,  D. Hait,  P. R. Horn,  L. D. Jacobson,  
 I. Kaliman,  J. Kussmann,  A. W. Lange,  Ka Un Lao,  D. S. Levine,  Jie Liu,  
 S. C. McKenzie,  A. F. Morrison,  K. D. Nanda,  F. Plasser,  D. R. Rehn,  
 M. L. Vidal,  Zhi-Qiang You,  Ying Zhu,  Huseyin Aksu,  B. Alam,  
 B. Albrecht,  A. Aldossary,  E. Alguire,  J. H. Andersen,  
 J. E. Arias-Martinez,  V. Athavale,  D. Barton,  K. Begam,  A. Behn,  
 N. Bellonzi,  Y. A. Bernard,  E. J. Berquist,  H. Burton,  A. Carreras,  
 K. Carter-Fenk,  Mathew Chow,  Romit Chakraborty,  Chandrima Chakravarty,  
 Junhan Chen,  A. D. Chien,  K. D. Closser,  V. Cofer-Shabica,  L. Cunha,  
 S. Dasgupta,  Jia Deng,  Joseph Dickinson,  M. de Wergifosse,  
 M. Diedenhofen,  Hainam Do,  Wenjie Dou,  S. Ehlert,  Po-Tung Fang,  
 S. Fatehi,  Qingguo Feng,  Jonathan Fetherolf,  T. Friedhoff,  
 Thomas Froitzheim,  Sarai Folkestad,  B. Ganoe,  J. Gayvert,  Qinghui Ge,  
 G. Gidofalvi,  M. Gimferrer,  M. Goldey,  Montgomery Gray,  J. Gomes,  
 C. Gonzalez-Espinoza,  S. Gulania,  A. Gunina,  J. A. Gyamfi,  
 M. W. D. Hanson-Heine,  P. H. P. Harbach,  A. W. Hauser,  M. F. Herbst,  
 M. Hernandez Vera,  M. Hodecker,  Z. C. Holden,  S. Houck,  Xunkun Huang,  
 Kerwin Hui,  B. C. Huynh,  K. Ikeda,  M. Ivanov,  Nayanthara K. Jayadev,  
 Hyunjun Ji,  Zuxin Jin,  Hanjie Jiang,  Subrata Jana,  B. Kaduk,  
 S. Kaehler,  R. Kang,  K. Khistyaev,  Jaehoon Kim,  Yongbin Kim,  
 P. Klunzinger,  Z. Koczor-Benda,  Joong Hoon Koh,  D. Kosenkov,  
 Saikiran Kotaru,  L. Koulias,  T. Kowalczyk,  C. M. Krauter,  K. Kue,  
 A. Kunitsa,  T. Kus,  A. Landau,  K. V. Lawler,  D. Lefrancois,  S. Lehtola,  
 Rain Li,  Shaozhi Li,  Tao E. Li,  Yi-Pei Li,  Jiashu Liang,  M. Liebenthal,  
 Hung-Hsuan Lin,  You-Sheng Lin,  Fenglai Liu,  Kuan-Yu Liu,  Xiao Liu,  
 M. Loipersberger,  A. Luenser,  C. Malbon,  Aniket Mandal,  Manisha,  
 A. Manjanath,  P. Manohar,  E. Mansoor,  S. F. Manzer,  Shan-Ping Mao,  
 A. V. Marenich,  T. Markovich,  S. Mason,  F. Matz,  S. A. Maurer,  
 Samuel May,  Alexandra McIsaac,  P. F. McLaughlin,  M. F. S. J. Menger,  
 J.-M. Mewes,  S. A. Mewes,  P. Morgante,  Mohammad Mostafanejad,  
 Madhubani Mukherjee,  J. W. Mullinax,  Quyen Nguyen,  Avik Kumar Ojha,  
 K. J. Oosterbaan,  Eno Paenurk,  Xiaoliang Pan,  G. Paran,  V. Parravicini,  
 Alexander C. Paul,  Suranjan K. Paul,  F. Pavosevic,  Zheng Pei,  S. Prager,  
 E. I. Proynov,  E. Ramos,  B. Rana,  A. E. Rask,  A. Rettig,  R. M. Richard,  
 F. Rob,  E. Rossomme,  T. Scheele,  M. Scheurer,  M. Schneider,  
 P. E. Schneider,  Tim K. Schramm,  N. Sergueev,  S. M. Sharada,  
 Hengyuan Shen,  W. Skomorowski,  D. W. Small,  C. J. Stein,  
 Alistair J. Sterling,  Yingli Su,  Yu-Chuan Su,  E. J. Sundstrom,  
 J. Talbot,  Zhen Tao,  J. Thirman,  Hung-Yi Tsai,  T. Tsuchimochi,  
 N. M. Tubman,  C. Utku,  S. P. Veccham,  O. Vydrov,  Rahel Weiss,  
 J. Wenzel,  Jonathan Wong,  J. Witte,  H. Wu,  Yanze Wu,  A. Yamada,  
 Chou-Hsun Yang,  Kun Yao,  S. Yeganeh,  S. R. Yost,  Qi Yu,  A. Zech,  
 F. Zeller,  Chongxiao Zhao,  Igor Ying Zhang,  Xing Zhang,  Yu Zhang,  
 D. Zuev,  A. Aspuru-Guzik,  A. T. Bell,  N. A. Besley,  K. B. Bravaya,  
 B. R. Brooks,  D. Casanova,  Jeng-Da Chai,  Hsing-Ta Chen,  S. Coriani,  
 C. J. Cramer,  A. E. DePrince, III,  R. A. DiStasio Jr.,  A. Dreuw,  
 B. D. Dunietz,  T. R. Furlani,  W. A. Goddard III,  S. Grimme,  
 S. Hammes-Schiffer,  T. Head-Gordon,  W. J. Hehre,  Chao-Ping Hsu,  
 T.-C. Jagau,  Yousung Jung,  A. Klamt,  Jing Kong,  D. S. Lambrecht,  
 Xiangyuan Li,  WanZhen Liang,  N. J. Mayhall,  C. W. McCurdy,  J. B. Neaton,  
 T. Neudecker,  C. Ochsenfeld,  J. A. Parkhill,  R. Peverati,  
 V. A. Rassolov,  Haisheng Ren,  Yihan Shao,  L. V. Slipchenko,  
 R. P. Steele,  J. E. Subotnik,  A. J. W. Thom,  A. Tkatchenko,  
 D. G. Truhlar,  T. Van Voorhis,  Fan Wang,  T. A. Wesolowski,  K. B. Whaley,  
 H. L. Woodcock III,  P. M. Zimmerman,  S. Faraji,  P. M. W. Gill,  
 M. Head-Gordon,  J. M. Herbert,  A. I. Krylov

 Contributors to earlier versions of Q-Chem not listed above: 
 R. D. Adamson,  B. Austin,  R. Baer,  J. Baker,  G. J. O. Beran,  
 K. Brandhorst,  S. T. Brown,  E. F. C. Byrd,  Arup K. Chakraborty,  
 G. K. L. Chan,  Chun-Min Chang,  Yunqing Chen,  C.-L. Cheng,  
 Siu Hung Chien,  D. M. Chipman,  D. L. Crittenden,  H. Dachsel,  
 R. J. Doerksen,  A. D. Dutoi,  R. G. Edgar,  J. Fosso-Tande,  
 L. Fusti-Molnar,  D. Ghosh,  A. Ghysels,  A. Golubeva-Zadorozhnaya,  
 J. Gonthier,  M. S. Gordon,  S. R. Gwaltney,  G. Hawkins,  J. E. Herr,  
 A. Heyden,  S. Hirata,  E. G. Hohenstein,  G. Kedziora,  F. J. Keil,  
 C. Kelley,  Jihan Kim,  R. A. King,  R. Z. Khaliullin,  P. P. Korambath,  
 W. Kurlancheek,  A. Laurent,  A. M. Lee,  M. S. Lee,  S. V. Levchenko,  
 Ching Yeh Lin,  D. Liotard,  E. Livshits,  R. C. Lochan,  I. Lotan,  
 L. A. Martinez-Martinez,  P. E. Maslen,  N. Nair,  D. P. O'Neill,  
 D. Neuhauser,  E. Neuscamman,  C. M. Oana,  R. Olivares-Amaya,  R. Olson,  
 T. M. Perrine,  B. Peters,  P. A. Pieniazek,  A. Prociuk,  Y. M. Rhee,  
 J. Ritchie,  M. A. Rohrdanz,  E. Rosta,  N. J. Russ,  H. F. Schaefer III,  
 M. W. Schmidt,  N. E. Schultz,  S. Sharma,  N. Shenvi,  C. D. Sherrill,  
 A. C. Simmonett,  A. Sodt,  T. Stein,  D. Stuck,  K. S. Thanthiriwatte,  
 V. Vanovschi,  L. Vogt,  Tao Wang,  A. Warshel,  M. A. Watson,  
 C. F. Williams,  Q. Wu,  X. Xu,  Jun Yang,  W. Zhang,  Yan Zhao

   Please cite Q-Chem as follows:
  "Software for the frontiers of quantum chemistry:
   An overview of developments in the Q-Chem 5 package"
   J. Chem. Phys. 155, 084801 (2021)
   https://doi.org/10.1063/5.0055522 (open access)

 Q-Chem 6.2.0 for Intel X86 EM64T Linux

 Parts of Q-Chem use Armadillo 9.900.5 (Nocturnal Misbehaviour).
 http://arma.sourceforge.net/

 Q-Chem begins on Wed Jan 29 18:26:37 2025  

 Host: 
0

     Scratch files written to /scratch/brussel/103/vsc10365/qchem1631631//
 May224 |scratch|qcdevops|jenkins|workspace|build_RNUM -1
 Processing $rem in /apps/brussel/RL8/skylake/software/Q-Chem/6.2.0/config/preferences:
 Processing $rem in /user/brussel/103/vsc10365/.qchemrc:
 Symmetry turned off for PCM/SM12/SMD calculation

 Checking the input file for inconsistencies... 	...done.

--------------------------------------------------------------
User input:
--------------------------------------------------------------
$comment
TDDFT calculation of cyanidin H structure
nprocs=16
mem=64gb
$end

$molecule
1 1
C    0.1577253   -1.7789824   -3.7020022
C    0.1027768   -0.6017663   -4.4719825
C    0.0283904    0.6225105   -3.8525307
C    0.0068878    0.7047067   -2.4309281
C    0.0700199   -0.5076839   -1.7131730
C    0.1436650   -1.7489540   -2.3137410
C   -0.0803226    1.8920997   -1.7039273
C   -0.0902566    1.8891447   -0.3211511
C   -0.0068894    0.6656710    0.3677662
O    0.0648180   -0.4585011   -0.3607564
C   -0.0045396    0.4264099    1.7924149
C   -0.2230143   -0.8867019    2.2637911
C   -0.2077510   -1.1594366    3.6117240
C    0.0378849   -0.1294371    4.5381003
C    0.2626072    1.1637603    4.0837083
C    0.2360180    1.4474566    2.7309111
O    0.2279734   -2.9937809   -4.2945135
H    0.1202074   -0.6653325   -5.5535839
O   -0.0279903    1.7935894   -4.5276368
H    0.1909816   -2.6553609   -1.7281458
H   -0.1530353    2.8405408   -2.2216128
O   -0.2045002    3.0357764    0.3953128
H   -0.4186698   -1.6955459    1.5737568
O   -0.4241231   -2.4007454    4.1461540
O    0.0562372   -0.3817457    5.8694470
H    0.4581509    1.9450627    4.8061649
H    0.4238894    2.4560668    2.4064578
H    0.2243148   -2.9050628   -5.2593000
H   -0.0042077    1.6333277   -5.4827239
H   -0.2597369    3.7956246   -0.2030517
H   -0.1225891   -1.3223712    6.0265654
H   -0.5849425   -3.0485789    3.4452562
$end

$rem
BASIS  =  def2-ma-TZVP
MEM_STATIC  =  2000
MEM_TOTAL  =  64000
METHOD  =  CAM-B3LYP
SOLVENT_METHOD = pcm
SYMMETRY_IGNORE  =  1
CIS_N_ROOTS = 7
CIS_SINGLETS = true
CIS_TRIPLETS = true
CISTR_PRINT = true
RPA = true
PRINT_ORBITALS = true
SCF_PRINT = 1
SCF_FINAL_PRINT = 2
PRINT_GENERAL_BASIS = true
CISTR_PRINT = true
PRINT_RADII_GYRE = true
MULTIPOLE_ORDER = 5
CIS_AMPL_PRINT = 5
CIS_AMPL_ANAL = true
STATE_ANALYSIS = true
$end

$pcm
Theory   CPCM
Method   SWIG
Solver   Inversion
Radii    Bondi
$end

$solvent
Dielectric         78.39
OpticalDielectric  1.777849
$end


--------------------------------------------------------------
 ----------------------------------------------------------------
             Standard Nuclear Orientation (Angstroms)
    I     Atom           X                Y                Z
 ----------------------------------------------------------------
    1      C       0.1577253000    -1.7789824000    -3.7020022000
    2      C       0.1027768000    -0.6017663000    -4.4719825000
    3      C       0.0283904000     0.6225105000    -3.8525307000
    4      C       0.0068878000     0.7047067000    -2.4309281000
    5      C       0.0700199000    -0.5076839000    -1.7131730000
    6      C       0.1436650000    -1.7489540000    -2.3137410000
    7      C      -0.0803226000     1.8920997000    -1.7039273000
    8      C      -0.0902566000     1.8891447000    -0.3211511000
    9      C      -0.0068894000     0.6656710000     0.3677662000
   10      O       0.0648180000    -0.4585011000    -0.3607564000
   11      C      -0.0045396000     0.4264099000     1.7924149000
   12      C      -0.2230143000    -0.8867019000     2.2637911000
   13      C      -0.2077510000    -1.1594366000     3.6117240000
   14      C       0.0378849000    -0.1294371000     4.5381003000
   15      C       0.2626072000     1.1637603000     4.0837083000
   16      C       0.2360180000     1.4474566000     2.7309111000
   17      O       0.2279734000    -2.9937809000    -4.2945135000
   18      H       0.1202074000    -0.6653325000    -5.5535839000
   19      O      -0.0279903000     1.7935894000    -4.5276368000
   20      H       0.1909816000    -2.6553609000    -1.7281458000
   21      H      -0.1530353000     2.8405408000    -2.2216128000
   22      O      -0.2045002000     3.0357764000     0.3953128000
   23      H      -0.4186698000    -1.6955459000     1.5737568000
   24      O      -0.4241231000    -2.4007454000     4.1461540000
   25      O       0.0562372000    -0.3817457000     5.8694470000
   26      H       0.4581509000     1.9450627000     4.8061649000
   27      H       0.4238894000     2.4560668000     2.4064578000
   28      H       0.2243148000    -2.9050628000    -5.2593000000
   29      H      -0.0042077000     1.6333277000    -5.4827239000
   30      H      -0.2597369000     3.7956246000    -0.2030517000
   31      H      -0.1225891000    -1.3223712000     6.0265654000
   32      H      -0.5849425000    -3.0485789000     3.4452562000
 ----------------------------------------------------------------
 Nuclear Repulsion Energy =        1584.80285858 hartrees
 There are       74 alpha and       74 beta electrons
 Requested basis set is def2-ma-TZVP
 Basis set in general basis input format:
-----------------------------------------------------------------------
$basis
C    0
S    6    1.000000
   1.35753497E+04    2.22458144E-04 
   2.03523337E+03    1.72327383E-03 
   4.63225624E+02    8.92557153E-03 
   1.31200196E+02    3.57279845E-02 
   4.28530159E+01    1.10762599E-01 
   1.55841858E+01    2.42956276E-01 
S    2    1.000000
   6.20671385E+00    4.14402634E-01 
   2.57648965E+00    2.37449687E-01 
S    1    1.000000
   5.76963394E-01    1.00000000E+00 
S    1    1.000000
   2.29728314E-01    1.00000000E+00 
S    1    1.000000
   9.51644400E-02    1.00000000E+00 
S    1    1.000000
   4.84754014E-02    1.00000000E+00 
P    4    1.000000
   3.46972322E+01    5.33336578E-03 
   7.95826228E+00    3.58641091E-02 
   2.37808269E+00    1.42158733E-01 
   8.14332082E-01    3.42704718E-01 
P    1    1.000000
   2.88875473E-01    4.64458224E-01 
P    1    1.000000
   1.00568237E-01    2.49557899E-01 
D    1    1.000000
   1.09700000E+00    1.00000000E+00 
D    1    1.000000
   3.18000000E-01    1.00000000E+00 
F    1    1.000000
   7.61000000E-01    1.00000000E+00 
****
C    0
S    6    1.000000
   1.35753497E+04    2.22458144E-04 
   2.03523337E+03    1.72327383E-03 
   4.63225624E+02    8.92557153E-03 
   1.31200196E+02    3.57279845E-02 
   4.28530159E+01    1.10762599E-01 
   1.55841858E+01    2.42956276E-01 
S    2    1.000000
   6.20671385E+00    4.14402634E-01 
   2.57648965E+00    2.37449687E-01 
S    1    1.000000
   5.76963394E-01    1.00000000E+00 
S    1    1.000000
   2.29728314E-01    1.00000000E+00 
S    1    1.000000
   9.51644400E-02    1.00000000E+00 
S    1    1.000000
   4.84754014E-02    1.00000000E+00 
P    4    1.000000
   3.46972322E+01    5.33336578E-03 
   7.95826228E+00    3.58641091E-02 
   2.37808269E+00    1.42158733E-01 
   8.14332082E-01    3.42704718E-01 
P    1    1.000000
   2.88875473E-01    4.64458224E-01 
P    1    1.000000
   1.00568237E-01    2.49557899E-01 
D    1    1.000000
   1.09700000E+00    1.00000000E+00 
D    1    1.000000
   3.18000000E-01    1.00000000E+00 
F    1    1.000000
   7.61000000E-01    1.00000000E+00 
****
C    0
S    6    1.000000
   1.35753497E+04    2.22458144E-04 
   2.03523337E+03    1.72327383E-03 
   4.63225624E+02    8.92557153E-03 
   1.31200196E+02    3.57279845E-02 
   4.28530159E+01    1.10762599E-01 
   1.55841858E+01    2.42956276E-01 
S    2    1.000000
   6.20671385E+00    4.14402634E-01 
   2.57648965E+00    2.37449687E-01 
S    1    1.000000
   5.76963394E-01    1.00000000E+00 
S    1    1.000000
   2.29728314E-01    1.00000000E+00 
S    1    1.000000
   9.51644400E-02    1.00000000E+00 
S    1    1.000000
   4.84754014E-02    1.00000000E+00 
P    4    1.000000
   3.46972322E+01    5.33336578E-03 
   7.95826228E+00    3.58641091E-02 
   2.37808269E+00    1.42158733E-01 
   8.14332082E-01    3.42704718E-01 
P    1    1.000000
   2.88875473E-01    4.64458224E-01 
P    1    1.000000
   1.00568237E-01    2.49557899E-01 
D    1    1.000000
   1.09700000E+00    1.00000000E+00 
D    1    1.000000
   3.18000000E-01    1.00000000E+00 
F    1    1.000000
   7.61000000E-01    1.00000000E+00 
****
C    0
S    6    1.000000
   1.35753497E+04    2.22458144E-04 
   2.03523337E+03    1.72327383E-03 
   4.63225624E+02    8.92557153E-03 
   1.31200196E+02    3.57279845E-02 
   4.28530159E+01    1.10762599E-01 
   1.55841858E+01    2.42956276E-01 
S    2    1.000000
   6.20671385E+00    4.14402634E-01 
   2.57648965E+00    2.37449687E-01 
S    1    1.000000
   5.76963394E-01    1.00000000E+00 
S    1    1.000000
   2.29728314E-01    1.00000000E+00 
S    1    1.000000
   9.51644400E-02    1.00000000E+00 
S    1    1.000000
   4.84754014E-02    1.00000000E+00 
P    4    1.000000
   3.46972322E+01    5.33336578E-03 
   7.95826228E+00    3.58641091E-02 
   2.37808269E+00    1.42158733E-01 
   8.14332082E-01    3.42704718E-01 
P    1    1.000000
   2.88875473E-01    4.64458224E-01 
P    1    1.000000
   1.00568237E-01    2.49557899E-01 
D    1    1.000000
   1.09700000E+00    1.00000000E+00 
D    1    1.000000
   3.18000000E-01    1.00000000E+00 
F    1    1.000000
   7.61000000E-01    1.00000000E+00 
****
C    0
S    6    1.000000
   1.35753497E+04    2.22458144E-04 
   2.03523337E+03    1.72327383E-03 
   4.63225624E+02    8.92557153E-03 
   1.31200196E+02    3.57279845E-02 
   4.28530159E+01    1.10762599E-01 
   1.55841858E+01    2.42956276E-01 
S    2    1.000000
   6.20671385E+00    4.14402634E-01 
   2.57648965E+00    2.37449687E-01 
S    1    1.000000
   5.76963394E-01    1.00000000E+00 
S    1    1.000000
   2.29728314E-01    1.00000000E+00 
S    1    1.000000
   9.51644400E-02    1.00000000E+00 
S    1    1.000000
   4.84754014E-02    1.00000000E+00 
P    4    1.000000
   3.46972322E+01    5.33336578E-03 
   7.95826228E+00    3.58641091E-02 
   2.37808269E+00    1.42158733E-01 
   8.14332082E-01    3.42704718E-01 
P    1    1.000000
   2.88875473E-01    4.64458224E-01 
P    1    1.000000
   1.00568237E-01    2.49557899E-01 
D    1    1.000000
   1.09700000E+00    1.00000000E+00 
D    1    1.000000
   3.18000000E-01    1.00000000E+00 
F    1    1.000000
   7.61000000E-01    1.00000000E+00 
****
C    0
S    6    1.000000
   1.35753497E+04    2.22458144E-04 
   2.03523337E+03    1.72327383E-03 
   4.63225624E+02    8.92557153E-03 
   1.31200196E+02    3.57279845E-02 
   4.28530159E+01    1.10762599E-01 
   1.55841858E+01    2.42956276E-01 
S    2    1.000000
   6.20671385E+00    4.14402634E-01 
   2.57648965E+00    2.37449687E-01 
S    1    1.000000
   5.76963394E-01    1.00000000E+00 
S    1    1.000000
   2.29728314E-01    1.00000000E+00 
S    1    1.000000
   9.51644400E-02    1.00000000E+00 
S    1    1.000000
   4.84754014E-02    1.00000000E+00 
P    4    1.000000
   3.46972322E+01    5.33336578E-03 
   7.95826228E+00    3.58641091E-02 
   2.37808269E+00    1.42158733E-01 
   8.14332082E-01    3.42704718E-01 
P    1    1.000000
   2.88875473E-01    4.64458224E-01 
P    1    1.000000
   1.00568237E-01    2.49557899E-01 
D    1    1.000000
   1.09700000E+00    1.00000000E+00 
D    1    1.000000
   3.18000000E-01    1.00000000E+00 
F    1    1.000000
   7.61000000E-01    1.00000000E+00 
****
C    0
S    6    1.000000
   1.35753497E+04    2.22458144E-04 
   2.03523337E+03    1.72327383E-03 
   4.63225624E+02    8.92557153E-03 
   1.31200196E+02    3.57279845E-02 
   4.28530159E+01    1.10762599E-01 
   1.55841858E+01    2.42956276E-01 
S    2    1.000000
   6.20671385E+00    4.14402634E-01 
   2.57648965E+00    2.37449687E-01 
S    1    1.000000
   5.76963394E-01    1.00000000E+00 
S    1    1.000000
   2.29728314E-01    1.00000000E+00 
S    1    1.000000
   9.51644400E-02    1.00000000E+00 
S    1    1.000000
   4.84754014E-02    1.00000000E+00 
P    4    1.000000
   3.46972322E+01    5.33336578E-03 
   7.95826228E+00    3.58641091E-02 
   2.37808269E+00    1.42158733E-01 
   8.14332082E-01    3.42704718E-01 
P    1    1.000000
   2.88875473E-01    4.64458224E-01 
P    1    1.000000
   1.00568237E-01    2.49557899E-01 
D    1    1.000000
   1.09700000E+00    1.00000000E+00 
D    1    1.000000
   3.18000000E-01    1.00000000E+00 
F    1    1.000000
   7.61000000E-01    1.00000000E+00 
****
C    0
S    6    1.000000
   1.35753497E+04    2.22458144E-04 
   2.03523337E+03    1.72327383E-03 
   4.63225624E+02    8.92557153E-03 
   1.31200196E+02    3.57279845E-02 
   4.28530159E+01    1.10762599E-01 
   1.55841858E+01    2.42956276E-01 
S    2    1.000000
   6.20671385E+00    4.14402634E-01 
   2.57648965E+00    2.37449687E-01 
S    1    1.000000
   5.76963394E-01    1.00000000E+00 
S    1    1.000000
   2.29728314E-01    1.00000000E+00 
S    1    1.000000
   9.51644400E-02    1.00000000E+00 
S    1    1.000000
   4.84754014E-02    1.00000000E+00 
P    4    1.000000
   3.46972322E+01    5.33336578E-03 
   7.95826228E+00    3.58641091E-02 
   2.37808269E+00    1.42158733E-01 
   8.14332082E-01    3.42704718E-01 
P    1    1.000000
   2.88875473E-01    4.64458224E-01 
P    1    1.000000
   1.00568237E-01    2.49557899E-01 
D    1    1.000000
   1.09700000E+00    1.00000000E+00 
D    1    1.000000
   3.18000000E-01    1.00000000E+00 
F    1    1.000000
   7.61000000E-01    1.00000000E+00 
****
C    0
S    6    1.000000
   1.35753497E+04    2.22458144E-04 
   2.03523337E+03    1.72327383E-03 
   4.63225624E+02    8.92557153E-03 
   1.31200196E+02    3.57279845E-02 
   4.28530159E+01    1.10762599E-01 
   1.55841858E+01    2.42956276E-01 
S    2    1.000000
   6.20671385E+00    4.14402634E-01 
   2.57648965E+00    2.37449687E-01 
S    1    1.000000
   5.76963394E-01    1.00000000E+00 
S    1    1.000000
   2.29728314E-01    1.00000000E+00 
S    1    1.000000
   9.51644400E-02    1.00000000E+00 
S    1    1.000000
   4.84754014E-02    1.00000000E+00 
P    4    1.000000
   3.46972322E+01    5.33336578E-03 
   7.95826228E+00    3.58641091E-02 
   2.37808269E+00    1.42158733E-01 
   8.14332082E-01    3.42704718E-01 
P    1    1.000000
   2.88875473E-01    4.64458224E-01 
P    1    1.000000
   1.00568237E-01    2.49557899E-01 
D    1    1.000000
   1.09700000E+00    1.00000000E+00 
D    1    1.000000
   3.18000000E-01    1.00000000E+00 
F    1    1.000000
   7.61000000E-01    1.00000000E+00 
****
O    0
S    6    1.000000
   2.70323826E+04    2.17263025E-04 
   4.05238714E+03    1.68386622E-03 
   9.22327227E+02    8.73956163E-03 
   2.61240710E+02    3.52399688E-02 
   8.53546414E+01    1.11535191E-01 
   3.10350352E+01    2.55889540E-01 
S    2    1.000000
   1.22608607E+01    3.97687309E-01 
   4.99870760E+00    2.46278494E-01 
S    1    1.000000
   1.17031082E+00    1.00000000E+00 
S    1    1.000000
   4.64747410E-01    1.00000000E+00 
S    1    1.000000
   1.85045364E-01    1.00000000E+00 
S    1    1.000000
   7.02880263E-02    1.00000000E+00 
P    4    1.000000
   6.32749548E+01    6.06851034E-03 
   1.46270494E+01    4.19125758E-02 
   4.45012235E+00    1.61538411E-01 
   1.52757996E+00    3.57069513E-01 
P    1    1.000000
   5.29351179E-01    4.47942075E-01 
P    1    1.000000
   1.74784213E-01    2.44460697E-01 
P    1    1.000000
   5.11127457E-02    1.00000000E+00 
D    1    1.000000
   2.31400000E+00    1.00000000E+00 
D    1    1.000000
   6.45000000E-01    1.00000000E+00 
F    1    1.000000
   1.42800000E+00    1.00000000E+00 
****
C    0
S    6    1.000000
   1.35753497E+04    2.22458144E-04 
   2.03523337E+03    1.72327383E-03 
   4.63225624E+02    8.92557153E-03 
   1.31200196E+02    3.57279845E-02 
   4.28530159E+01    1.10762599E-01 
   1.55841858E+01    2.42956276E-01 
S    2    1.000000
   6.20671385E+00    4.14402634E-01 
   2.57648965E+00    2.37449687E-01 
S    1    1.000000
   5.76963394E-01    1.00000000E+00 
S    1    1.000000
   2.29728314E-01    1.00000000E+00 
S    1    1.000000
   9.51644400E-02    1.00000000E+00 
S    1    1.000000
   4.84754014E-02    1.00000000E+00 
P    4    1.000000
   3.46972322E+01    5.33336578E-03 
   7.95826228E+00    3.58641091E-02 
   2.37808269E+00    1.42158733E-01 
   8.14332082E-01    3.42704718E-01 
P    1    1.000000
   2.88875473E-01    4.64458224E-01 
P    1    1.000000
   1.00568237E-01    2.49557899E-01 
D    1    1.000000
   1.09700000E+00    1.00000000E+00 
D    1    1.000000
   3.18000000E-01    1.00000000E+00 
F    1    1.000000
   7.61000000E-01    1.00000000E+00 
****
C    0
S    6    1.000000
   1.35753497E+04    2.22458144E-04 
   2.03523337E+03    1.72327383E-03 
   4.63225624E+02    8.92557153E-03 
   1.31200196E+02    3.57279845E-02 
   4.28530159E+01    1.10762599E-01 
   1.55841858E+01    2.42956276E-01 
S    2    1.000000
   6.20671385E+00    4.14402634E-01 
   2.57648965E+00    2.37449687E-01 
S    1    1.000000
   5.76963394E-01    1.00000000E+00 
S    1    1.000000
   2.29728314E-01    1.00000000E+00 
S    1    1.000000
   9.51644400E-02    1.00000000E+00 
S    1    1.000000
   4.84754014E-02    1.00000000E+00 
P    4    1.000000
   3.46972322E+01    5.33336578E-03 
   7.95826228E+00    3.58641091E-02 
   2.37808269E+00    1.42158733E-01 
   8.14332082E-01    3.42704718E-01 
P    1    1.000000
   2.88875473E-01    4.64458224E-01 
P    1    1.000000
   1.00568237E-01    2.49557899E-01 
D    1    1.000000
   1.09700000E+00    1.00000000E+00 
D    1    1.000000
   3.18000000E-01    1.00000000E+00 
F    1    1.000000
   7.61000000E-01    1.00000000E+00 
****
C    0
S    6    1.000000
   1.35753497E+04    2.22458144E-04 
   2.03523337E+03    1.72327383E-03 
   4.63225624E+02    8.92557153E-03 
   1.31200196E+02    3.57279845E-02 
   4.28530159E+01    1.10762599E-01 
   1.55841858E+01    2.42956276E-01 
S    2    1.000000
   6.20671385E+00    4.14402634E-01 
   2.57648965E+00    2.37449687E-01 
S    1    1.000000
   5.76963394E-01    1.00000000E+00 
S    1    1.000000
   2.29728314E-01    1.00000000E+00 
S    1    1.000000
   9.51644400E-02    1.00000000E+00 
S    1    1.000000
   4.84754014E-02    1.00000000E+00 
P    4    1.000000
   3.46972322E+01    5.33336578E-03 
   7.95826228E+00    3.58641091E-02 
   2.37808269E+00    1.42158733E-01 
   8.14332082E-01    3.42704718E-01 
P    1    1.000000
   2.88875473E-01    4.64458224E-01 
P    1    1.000000
   1.00568237E-01    2.49557899E-01 
D    1    1.000000
   1.09700000E+00    1.00000000E+00 
D    1    1.000000
   3.18000000E-01    1.00000000E+00 
F    1    1.000000
   7.61000000E-01    1.00000000E+00 
****
C    0
S    6    1.000000
   1.35753497E+04    2.22458144E-04 
   2.03523337E+03    1.72327383E-03 
   4.63225624E+02    8.92557153E-03 
   1.31200196E+02    3.57279845E-02 
   4.28530159E+01    1.10762599E-01 
   1.55841858E+01    2.42956276E-01 
S    2    1.000000
   6.20671385E+00    4.14402634E-01 
   2.57648965E+00    2.37449687E-01 
S    1    1.000000
   5.76963394E-01    1.00000000E+00 
S    1    1.000000
   2.29728314E-01    1.00000000E+00 
S    1    1.000000
   9.51644400E-02    1.00000000E+00 
S    1    1.000000
   4.84754014E-02    1.00000000E+00 
P    4    1.000000
   3.46972322E+01    5.33336578E-03 
   7.95826228E+00    3.58641091E-02 
   2.37808269E+00    1.42158733E-01 
   8.14332082E-01    3.42704718E-01 
P    1    1.000000
   2.88875473E-01    4.64458224E-01 
P    1    1.000000
   1.00568237E-01    2.49557899E-01 
D    1    1.000000
   1.09700000E+00    1.00000000E+00 
D    1    1.000000
   3.18000000E-01    1.00000000E+00 
F    1    1.000000
   7.61000000E-01    1.00000000E+00 
****
C    0
S    6    1.000000
   1.35753497E+04    2.22458144E-04 
   2.03523337E+03    1.72327383E-03 
   4.63225624E+02    8.92557153E-03 
   1.31200196E+02    3.57279845E-02 
   4.28530159E+01    1.10762599E-01 
   1.55841858E+01    2.42956276E-01 
S    2    1.000000
   6.20671385E+00    4.14402634E-01 
   2.57648965E+00    2.37449687E-01 
S    1    1.000000
   5.76963394E-01    1.00000000E+00 
S    1    1.000000
   2.29728314E-01    1.00000000E+00 
S    1    1.000000
   9.51644400E-02    1.00000000E+00 
S    1    1.000000
   4.84754014E-02    1.00000000E+00 
P    4    1.000000
   3.46972322E+01    5.33336578E-03 
   7.95826228E+00    3.58641091E-02 
   2.37808269E+00    1.42158733E-01 
   8.14332082E-01    3.42704718E-01 
P    1    1.000000
   2.88875473E-01    4.64458224E-01 
P    1    1.000000
   1.00568237E-01    2.49557899E-01 
D    1    1.000000
   1.09700000E+00    1.00000000E+00 
D    1    1.000000
   3.18000000E-01    1.00000000E+00 
F    1    1.000000
   7.61000000E-01    1.00000000E+00 
****
C    0
S    6    1.000000
   1.35753497E+04    2.22458144E-04 
   2.03523337E+03    1.72327383E-03 
   4.63225624E+02    8.92557153E-03 
   1.31200196E+02    3.57279845E-02 
   4.28530159E+01    1.10762599E-01 
   1.55841858E+01    2.42956276E-01 
S    2    1.000000
   6.20671385E+00    4.14402634E-01 
   2.57648965E+00    2.37449687E-01 
S    1    1.000000
   5.76963394E-01    1.00000000E+00 
S    1    1.000000
   2.29728314E-01    1.00000000E+00 
S    1    1.000000
   9.51644400E-02    1.00000000E+00 
S    1    1.000000
   4.84754014E-02    1.00000000E+00 
P    4    1.000000
   3.46972322E+01    5.33336578E-03 
   7.95826228E+00    3.58641091E-02 
   2.37808269E+00    1.42158733E-01 
   8.14332082E-01    3.42704718E-01 
P    1    1.000000
   2.88875473E-01    4.64458224E-01 
P    1    1.000000
   1.00568237E-01    2.49557899E-01 
D    1    1.000000
   1.09700000E+00    1.00000000E+00 
D    1    1.000000
   3.18000000E-01    1.00000000E+00 
F    1    1.000000
   7.61000000E-01    1.00000000E+00 
****
O    0
S    6    1.000000
   2.70323826E+04    2.17263025E-04 
   4.05238714E+03    1.68386622E-03 
   9.22327227E+02    8.73956163E-03 
   2.61240710E+02    3.52399688E-02 
   8.53546414E+01    1.11535191E-01 
   3.10350352E+01    2.55889540E-01 
S    2    1.000000
   1.22608607E+01    3.97687309E-01 
   4.99870760E+00    2.46278494E-01 
S    1    1.000000
   1.17031082E+00    1.00000000E+00 
S    1    1.000000
   4.64747410E-01    1.00000000E+00 
S    1    1.000000
   1.85045364E-01    1.00000000E+00 
S    1    1.000000
   7.02880263E-02    1.00000000E+00 
P    4    1.000000
   6.32749548E+01    6.06851034E-03 
   1.46270494E+01    4.19125758E-02 
   4.45012235E+00    1.61538411E-01 
   1.52757996E+00    3.57069513E-01 
P    1    1.000000
   5.29351179E-01    4.47942075E-01 
P    1    1.000000
   1.74784213E-01    2.44460697E-01 
P    1    1.000000
   5.11127457E-02    1.00000000E+00 
D    1    1.000000
   2.31400000E+00    1.00000000E+00 
D    1    1.000000
   6.45000000E-01    1.00000000E+00 
F    1    1.000000
   1.42800000E+00    1.00000000E+00 
****
H    0
S    3    1.000000
   3.40613410E+01    6.02519780E-03 
   5.12357460E+00    4.50210940E-02 
   1.16466260E+00    2.01897260E-01 
S    1    1.000000
   3.27230410E-01    1.00000000E+00 
S    1    1.000000
   1.03072410E-01    1.00000000E+00 
P    1    1.000000
   8.00000000E-01    1.00000000E+00 
****
O    0
S    6    1.000000
   2.70323826E+04    2.17263025E-04 
   4.05238714E+03    1.68386622E-03 
   9.22327227E+02    8.73956163E-03 
   2.61240710E+02    3.52399688E-02 
   8.53546414E+01    1.11535191E-01 
   3.10350352E+01    2.55889540E-01 
S    2    1.000000
   1.22608607E+01    3.97687309E-01 
   4.99870760E+00    2.46278494E-01 
S    1    1.000000
   1.17031082E+00    1.00000000E+00 
S    1    1.000000
   4.64747410E-01    1.00000000E+00 
S    1    1.000000
   1.85045364E-01    1.00000000E+00 
S    1    1.000000
   7.02880263E-02    1.00000000E+00 
P    4    1.000000
   6.32749548E+01    6.06851034E-03 
   1.46270494E+01    4.19125758E-02 
   4.45012235E+00    1.61538411E-01 
   1.52757996E+00    3.57069513E-01 
P    1    1.000000
   5.29351179E-01    4.47942075E-01 
P    1    1.000000
   1.74784213E-01    2.44460697E-01 
P    1    1.000000
   5.11127457E-02    1.00000000E+00 
D    1    1.000000
   2.31400000E+00    1.00000000E+00 
D    1    1.000000
   6.45000000E-01    1.00000000E+00 
F    1    1.000000
   1.42800000E+00    1.00000000E+00 
****
H    0
S    3    1.000000
   3.40613410E+01    6.02519780E-03 
   5.12357460E+00    4.50210940E-02 
   1.16466260E+00    2.01897260E-01 
S    1    1.000000
   3.27230410E-01    1.00000000E+00 
S    1    1.000000
   1.03072410E-01    1.00000000E+00 
P    1    1.000000
   8.00000000E-01    1.00000000E+00 
****
H    0
S    3    1.000000
   3.40613410E+01    6.02519780E-03 
   5.12357460E+00    4.50210940E-02 
   1.16466260E+00    2.01897260E-01 
S    1    1.000000
   3.27230410E-01    1.00000000E+00 
S    1    1.000000
   1.03072410E-01    1.00000000E+00 
P    1    1.000000
   8.00000000E-01    1.00000000E+00 
****
O    0
S    6    1.000000
   2.70323826E+04    2.17263025E-04 
   4.05238714E+03    1.68386622E-03 
   9.22327227E+02    8.73956163E-03 
   2.61240710E+02    3.52399688E-02 
   8.53546414E+01    1.11535191E-01 
   3.10350352E+01    2.55889540E-01 
S    2    1.000000
   1.22608607E+01    3.97687309E-01 
   4.99870760E+00    2.46278494E-01 
S    1    1.000000
   1.17031082E+00    1.00000000E+00 
S    1    1.000000
   4.64747410E-01    1.00000000E+00 
S    1    1.000000
   1.85045364E-01    1.00000000E+00 
S    1    1.000000
   7.02880263E-02    1.00000000E+00 
P    4    1.000000
   6.32749548E+01    6.06851034E-03 
   1.46270494E+01    4.19125758E-02 
   4.45012235E+00    1.61538411E-01 
   1.52757996E+00    3.57069513E-01 
P    1    1.000000
   5.29351179E-01    4.47942075E-01 
P    1    1.000000
   1.74784213E-01    2.44460697E-01 
P    1    1.000000
   5.11127457E-02    1.00000000E+00 
D    1    1.000000
   2.31400000E+00    1.00000000E+00 
D    1    1.000000
   6.45000000E-01    1.00000000E+00 
F    1    1.000000
   1.42800000E+00    1.00000000E+00 
****
H    0
S    3    1.000000
   3.40613410E+01    6.02519780E-03 
   5.12357460E+00    4.50210940E-02 
   1.16466260E+00    2.01897260E-01 
S    1    1.000000
   3.27230410E-01    1.00000000E+00 
S    1    1.000000
   1.03072410E-01    1.00000000E+00 
P    1    1.000000
   8.00000000E-01    1.00000000E+00 
****
O    0
S    6    1.000000
   2.70323826E+04    2.17263025E-04 
   4.05238714E+03    1.68386622E-03 
   9.22327227E+02    8.73956163E-03 
   2.61240710E+02    3.52399688E-02 
   8.53546414E+01    1.11535191E-01 
   3.10350352E+01    2.55889540E-01 
S    2    1.000000
   1.22608607E+01    3.97687309E-01 
   4.99870760E+00    2.46278494E-01 
S    1    1.000000
   1.17031082E+00    1.00000000E+00 
S    1    1.000000
   4.64747410E-01    1.00000000E+00 
S    1    1.000000
   1.85045364E-01    1.00000000E+00 
S    1    1.000000
   7.02880263E-02    1.00000000E+00 
P    4    1.000000
   6.32749548E+01    6.06851034E-03 
   1.46270494E+01    4.19125758E-02 
   4.45012235E+00    1.61538411E-01 
   1.52757996E+00    3.57069513E-01 
P    1    1.000000
   5.29351179E-01    4.47942075E-01 
P    1    1.000000
   1.74784213E-01    2.44460697E-01 
P    1    1.000000
   5.11127457E-02    1.00000000E+00 
D    1    1.000000
   2.31400000E+00    1.00000000E+00 
D    1    1.000000
   6.45000000E-01    1.00000000E+00 
F    1    1.000000
   1.42800000E+00    1.00000000E+00 
****
O    0
S    6    1.000000
   2.70323826E+04    2.17263025E-04 
   4.05238714E+03    1.68386622E-03 
   9.22327227E+02    8.73956163E-03 
   2.61240710E+02    3.52399688E-02 
   8.53546414E+01    1.11535191E-01 
   3.10350352E+01    2.55889540E-01 
S    2    1.000000
   1.22608607E+01    3.97687309E-01 
   4.99870760E+00    2.46278494E-01 
S    1    1.000000
   1.17031082E+00    1.00000000E+00 
S    1    1.000000
   4.64747410E-01    1.00000000E+00 
S    1    1.000000
   1.85045364E-01    1.00000000E+00 
S    1    1.000000
   7.02880263E-02    1.00000000E+00 
P    4    1.000000
   6.32749548E+01    6.06851034E-03 
   1.46270494E+01    4.19125758E-02 
   4.45012235E+00    1.61538411E-01 
   1.52757996E+00    3.57069513E-01 
P    1    1.000000
   5.29351179E-01    4.47942075E-01 
P    1    1.000000
   1.74784213E-01    2.44460697E-01 
P    1    1.000000
   5.11127457E-02    1.00000000E+00 
D    1    1.000000
   2.31400000E+00    1.00000000E+00 
D    1    1.000000
   6.45000000E-01    1.00000000E+00 
F    1    1.000000
   1.42800000E+00    1.00000000E+00 
****
H    0
S    3    1.000000
   3.40613410E+01    6.02519780E-03 
   5.12357460E+00    4.50210940E-02 
   1.16466260E+00    2.01897260E-01 
S    1    1.000000
   3.27230410E-01    1.00000000E+00 
S    1    1.000000
   1.03072410E-01    1.00000000E+00 
P    1    1.000000
   8.00000000E-01    1.00000000E+00 
****
H    0
S    3    1.000000
   3.40613410E+01    6.02519780E-03 
   5.12357460E+00    4.50210940E-02 
   1.16466260E+00    2.01897260E-01 
S    1    1.000000
   3.27230410E-01    1.00000000E+00 
S    1    1.000000
   1.03072410E-01    1.00000000E+00 
P    1    1.000000
   8.00000000E-01    1.00000000E+00 
****
H    0
S    3    1.000000
   3.40613410E+01    6.02519780E-03 
   5.12357460E+00    4.50210940E-02 
   1.16466260E+00    2.01897260E-01 
S    1    1.000000
   3.27230410E-01    1.00000000E+00 
S    1    1.000000
   1.03072410E-01    1.00000000E+00 
P    1    1.000000
   8.00000000E-01    1.00000000E+00 
****
H    0
S    3    1.000000
   3.40613410E+01    6.02519780E-03 
   5.12357460E+00    4.50210940E-02 
   1.16466260E+00    2.01897260E-01 
S    1    1.000000
   3.27230410E-01    1.00000000E+00 
S    1    1.000000
   1.03072410E-01    1.00000000E+00 
P    1    1.000000
   8.00000000E-01    1.00000000E+00 
****
H    0
S    3    1.000000
   3.40613410E+01    6.02519780E-03 
   5.12357460E+00    4.50210940E-02 
   1.16466260E+00    2.01897260E-01 
S    1    1.000000
   3.27230410E-01    1.00000000E+00 
S    1    1.000000
   1.03072410E-01    1.00000000E+00 
P    1    1.000000
   8.00000000E-01    1.00000000E+00 
****
H    0
S    3    1.000000
   3.40613410E+01    6.02519780E-03 
   5.12357460E+00    4.50210940E-02 
   1.16466260E+00    2.01897260E-01 
S    1    1.000000
   3.27230410E-01    1.00000000E+00 
S    1    1.000000
   1.03072410E-01    1.00000000E+00 
P    1    1.000000
   8.00000000E-01    1.00000000E+00 
****
H    0
S    3    1.000000
   3.40613410E+01    6.02519780E-03 
   5.12357460E+00    4.50210940E-02 
   1.16466260E+00    2.01897260E-01 
S    1    1.000000
   3.27230410E-01    1.00000000E+00 
S    1    1.000000
   1.03072410E-01    1.00000000E+00 
P    1    1.000000
   8.00000000E-01    1.00000000E+00 
****
$end
-----------------------------------------------------------------------
 There are 302 shells and 756 basis functions

 Total QAlloc Memory Limit  64000 MB
 Mega-Array Size      1956 MB
 MEM_STATIC part      2000 MB

 User-specified dielectric constants (eps_0 = 78.39, eps_inf = 1.78)
 Using C-PCM dielectric factor f(eps) = (eps-1)/eps = 0.987243
 Static dielectric constant eps = 78.39
 Discretize the solute cavity surface with Lebedev spheres
	Using 110 Lebedev grid points for each H atom
	Using 194 Lebedev grid points for other atoms
	Atomic van der Waals radii (Bondi set) will be scaled by 1.20
 Using smooth SwiG surface discretization
 Remove points where switching function is < 1.0e-08
 Keep 2162 surface tesserae and discard 3122 interior tesserae
 Molecular Surface Area = 297.786 Angst**2

 A cutoff of  1.0D-12 yielded  32872 shell pairs
 There are    194592 function pairs (    247140 Cartesian)
 Smallest overlap matrix eigenvalue = 4.10E-06

 Scale SEOQF with 1.000000e-01/1.000000e-01/1.000000e-02

 Standard Electronic Orientation quadrupole field applied
 Nucleus-field energy     =     0.0000000114 hartrees
 Guess from superposition of atomic densities
 Warning:  Energy on first SCF cycle will be non-variational
 SAD guess density has 149.000000 electrons

 -----------------------------------------------------------------------
  General SCF calculation program by
  Eric Jon Sundstrom, Paul Horn, Yuezhi Mao, Dmitri Zuev, Alec White,
  David Stuck, Shaama M.S., Shane Yost, Joonho Lee, David Small,
  Daniel Levine, Susi Lehtola, Hugh Burton, Evgeny Epifanovsky,
  Bang C. Huynh
 -----------------------------------------------------------------------
 Exchange:     0.1900 Hartree-Fock + 0.3500 B88 + 0.4600 muB88 + LR-HF
 Correlation:  0.1900 VWN5 + 0.8100 LYP
 Using SG-1 standard quadrature grid
 using 16 threads for integral computing
 -------------------------------------------------------
 OpenMP Integral computing Module                
 Release: version 1.0, May 2013, Q-Chem Inc. Pittsburgh 
 -------------------------------------------------------
 C-PCM solvent model [f = (eps-1)/eps], solve by matrix inversion
 DFT Correlation          Energy =  -6.07458265384420
 DFT Exchange             Energy = -92.96778049555404
 HF Exchange              Energy = -38.23766198783704
 One-Electron             Energy = -4539.06438713950047
 SCRF wf-dependent energy Energy =   0.00000000000000
 Total Coulomb            Energy = 2055.50898835795988
 Nuclear repulsion Energy = 1584.80285859609353
 A restricted SCF calculation will be
 performed using DIIS
 SCF converges when DIIS error is below 1.0e-08
 DFT Correlation          Energy =  -6.07458265384420
 DFT Exchange             Energy = -92.96778049555404
 HF Exchange              Energy = -38.23766198783704
 One-Electron             Energy = -4539.06438713950047
 SCRF wf-dependent energy Energy =   0.00000000000000
 Total Coulomb            Energy = 2055.50898835795988
 ---------------------------------------
  Cycle       Energy         DIIS error
 ---------------------------------------
 DFT Correlation          Energy =  -6.11688089991709
 DFT Exchange             Energy = -94.64588588183126
 HF Exchange              Energy = -36.69575901129458
 One-Electron             Energy = -4520.97850006284989
 SCRF wf-dependent energy Energy = -17.51834938101479
 Total Coulomb            Energy = 2062.03143775837407
 Nuclear repulsion Energy = 1584.80285859609353
    1   -1036.0325653227      2.14e-02  
 DFT Correlation          Energy =  -6.07020507448976
 DFT Exchange             Energy = -93.28547830436662
 HF Exchange              Energy = -36.32661886302953
 One-Electron             Energy = -4510.44535693399393
 SCRF wf-dependent energy Energy = -16.52212749401087
 Total Coulomb            Energy = 2048.72271799722921
 Nuclear repulsion Energy = 1584.80285859609353
    2   -1029.1210788824      2.06e-03  
 DFT Correlation          Energy =  -6.09177934323361
 DFT Exchange             Energy = -93.96340076437581
 HF Exchange              Energy = -36.52785630942522
 One-Electron             Energy = -4514.04859971480164
 SCRF wf-dependent energy Energy = -17.46192728832602
 Total Coulomb            Energy = 2053.92934176703420
 Nuclear repulsion Energy = 1584.80285859609353
    3   -1029.1242100766      2.19e-03  
 DFT Correlation          Energy =  -6.09216538813305
 DFT Exchange             Energy = -93.95104890845916
 HF Exchange              Energy = -36.52400693654319
 One-Electron             Energy = -4515.18884508879910
 SCRF wf-dependent energy Energy = -17.13566101749234
 Total Coulomb            Energy = 2054.72328426681088
 Nuclear repulsion Energy = 1584.80285859609353
    4   -1029.3613630570      2.93e-04  
 DFT Correlation          Energy =  -6.09204744462884
 DFT Exchange             Energy = -93.95406454048704
 HF Exchange              Energy = -36.52571906495070
 One-Electron             Energy = -4514.94778583598236
 SCRF wf-dependent energy Energy = -17.21275610056318
 Total Coulomb            Energy = 2054.56316343079561
 Nuclear repulsion Energy = 1584.80285859609353
    5   -1029.3655844765      1.16e-04  
 DFT Correlation          Energy =  -6.09182925652524
 DFT Exchange             Energy = -93.94950436133942
 HF Exchange              Energy = -36.52491879014148
 One-Electron             Energy = -4514.85032313056763
 SCRF wf-dependent energy Energy = -17.21723329903625
 Total Coulomb            Energy = 2054.46452771864551
 Nuclear repulsion Energy = 1584.80285859609353
    6   -1029.3663509597      3.47e-05  
 DFT Correlation          Energy =  -6.09187480326325
 DFT Exchange             Energy = -93.94997056105309
 HF Exchange              Energy = -36.52511777891824
 One-Electron             Energy = -4514.87076476755828
 SCRF wf-dependent energy Energy = -17.21655777794103
 Total Coulomb            Energy = 2054.48499731097127
 Nuclear repulsion Energy = 1584.80285859609353
    7   -1029.3664225229      9.65e-06  
 DFT Correlation          Energy =  -6.09189728229714
 DFT Exchange             Energy = -93.95073341406290
 HF Exchange              Energy = -36.52536068005936
 One-Electron             Energy = -4514.88414843086230
 SCRF wf-dependent energy Energy = -17.21486722194481
 Total Coulomb            Energy = 2054.49771727427515
 Nuclear repulsion Energy = 1584.80285859609353
    8   -1029.3664297817      3.64e-06  
 DFT Correlation          Energy =  -6.09188755823908
 DFT Exchange             Energy = -93.95040845869035
 HF Exchange              Energy = -36.52530000749498
 One-Electron             Energy = -4514.87772761769065
 SCRF wf-dependent energy Energy = -17.21589278281317
 Total Coulomb            Energy = 2054.49192627539014
 Nuclear repulsion Energy = 1584.80285859609353
    9   -1029.3664311589      1.51e-06  
 DFT Correlation          Energy =  -6.09188736681998
 DFT Exchange             Energy = -93.95045459210161
 HF Exchange              Energy = -36.52532102061910
 One-Electron             Energy = -4514.87708553067023
 SCRF wf-dependent energy Energy = -17.21615881063622
 Total Coulomb            Energy = 2054.49161710434419
 Nuclear repulsion Energy = 1584.80285859609353
   10   -1029.3664315534      5.54e-07  
 DFT Correlation          Energy =  -6.09188804400140
 DFT Exchange             Energy = -93.95045799752292
 HF Exchange              Energy = -36.52532350523747
 One-Electron             Energy = -4514.87738885073486
 SCRF wf-dependent energy Energy = -17.21615894592742
 Total Coulomb            Energy = 2054.49192710577381
 Nuclear repulsion Energy = 1584.80285859609353
   11   -1029.3664316204      3.16e-07  
 DFT Correlation          Energy =  -6.09188794709061
 DFT Exchange             Energy = -93.95045820996889
 HF Exchange              Energy = -36.52532366860724
 One-Electron             Energy = -4514.87726091300010
 SCRF wf-dependent energy Energy = -17.21618623489599
 Total Coulomb            Energy = 2054.49182673257383
 Nuclear repulsion Energy = 1584.80285859609353
   12   -1029.3664316416      8.45e-08  
 DFT Correlation          Energy =  -6.09188785848094
 DFT Exchange             Energy = -93.95045607644936
 HF Exchange              Energy = -36.52532291686811
 One-Electron             Energy = -4514.87725835131187
 SCRF wf-dependent energy Energy = -17.21617939297153
 Total Coulomb            Energy = 2054.49181435438823
 Nuclear repulsion Energy = 1584.80285859609353
   13   -1029.3664316449      6.03e-08  
 DFT Correlation          Energy =  -6.09188789069961
 DFT Exchange             Energy = -93.95045700630638
 HF Exchange              Energy = -36.52532302896196
 One-Electron             Energy = -4514.87729075304742
 SCRF wf-dependent energy Energy = -17.21616972496304
 Total Coulomb            Energy = 2054.49183816221512
 Nuclear repulsion Energy = 1584.80285859609353
   14   -1029.3664316456      1.84e-08  
   15   -1029.3664316457      7.87e-09  Convergence criterion met
 ---------------------------------------
 DFT Correlation          Energy =  -6.09188789069961
 DFT Exchange             Energy = -93.95045700630638
 HF Exchange              Energy = -36.52532302896196
 One-Electron             Energy = -4514.87729075304742
 SCRF wf-dependent energy Energy = -17.21616972496304
 Total Coulomb            Energy = 2054.49183816221512
 Final Alpha MO Eigenvalues
            1           2           3           4           5           6
    1 -19.3238492 -19.2583564 -19.2574229 -19.2568228 -19.2514396 -19.2487847
            7           8           9          10          11          12
    1 -10.3890236 -10.3661498 -10.3573199 -10.3565570 -10.3554795 -10.3383960
           13          14          15          16          17          18
    1 -10.3308878 -10.3155564 -10.3005525 -10.2898016 -10.2748502 -10.2727527
           19          20          21          22          23          24
    1 -10.2723408 -10.2669184 -10.2635054  -1.2515766  -1.1775350  -1.1761826
           25          26          27          28          29          30
    1  -1.1756811  -1.1719809  -1.1488796  -0.9893164  -0.9693797  -0.9406272
           31          32          33          34          35          36
    1  -0.9045326  -0.8612247  -0.8528624  -0.8431680  -0.7887653  -0.7839783
           37          38          39          40          41          42
    1  -0.7354829  -0.7339419  -0.7195893  -0.7012815  -0.6630491  -0.6499491
           43          44          45          46          47          48
    1  -0.6447789  -0.6357266  -0.6270629  -0.6017981  -0.5957930  -0.5883865
           49          50          51          52          53          54
    1  -0.5767635  -0.5669343  -0.5472929  -0.5331041  -0.5316654  -0.5262818
           55          56          57          58          59          60
    1  -0.5206747  -0.5123566  -0.5065839  -0.5054109  -0.4938532  -0.4894378
           61          62          63          64          65          66
    1  -0.4849648  -0.4718095  -0.4648111  -0.4635747  -0.4493900  -0.4426166
           67          68          69          70          71          72
    1  -0.4415756  -0.4292432  -0.4146320  -0.3777194  -0.3405179  -0.3195357
           73          74          75          76          77          78
    1  -0.3053081  -0.2766919  -0.0898246  -0.0101171   0.0179540   0.0236421
           79          80          81          82          83          84
    1   0.0277562   0.0287519   0.0356592   0.0428166   0.0457712   0.0499926
           85          86          87          88          89          90
    1   0.0578840   0.0672112   0.0727417   0.0772507   0.0837525   0.0874444
           91          92          93          94          95          96
    1   0.0900461   0.0951853   0.0993551   0.1054622   0.1076391   0.1147198
           97          98          99         100         101         102
    1   0.1167974   0.1181220   0.1257582   0.1303965   0.1326645   0.1365751
          103         104         105         106         107         108
    1   0.1461304   0.1482869   0.1539471   0.1568804   0.1673673   0.1710688
          109         110         111         112         113         114
    1   0.1796310   0.1808380   0.1867646   0.1898046   0.1982438   0.2051606
          115         116         117         118         119         120
    1   0.2057218   0.2143514   0.2177996   0.2208049   0.2276293   0.2289142
          121         122         123         124         125         126
    1   0.2339441   0.2342974   0.2384528   0.2474790   0.2505679   0.2624792
          127         128         129         130         131         132
    1   0.2693968   0.2700813   0.2702753   0.2762676   0.2833861   0.2908997
          133         134         135         136         137         138
    1   0.2937528   0.2964705   0.3009674   0.3038527   0.3106331   0.3114099
          139         140         141         142         143         144
    1   0.3143223   0.3156424   0.3188522   0.3291924   0.3316538   0.3323754
          145         146         147         148         149         150
    1   0.3384865   0.3423908   0.3451082   0.3541902   0.3557821   0.3606108
          151         152         153         154         155         156
    1   0.3676213   0.3705329   0.3752314   0.3813731   0.3915712   0.3924405
          157         158         159         160         161         162
    1   0.3957468   0.3998347   0.4011755   0.4127936   0.4137502   0.4224457
          163         164         165         166         167         168
    1   0.4275257   0.4295731   0.4343260   0.4381806   0.4392267   0.4449920
          169         170         171         172         173         174
    1   0.4472277   0.4558687   0.4649905   0.4667681   0.4684060   0.4725730
          175         176         177         178         179         180
    1   0.4753024   0.4819559   0.4864387   0.4899099   0.4937978   0.5045355
          181         182         183         184         185         186
    1   0.5110519   0.5139912   0.5207810   0.5247665   0.5258905   0.5327613
          187         188         189         190         191         192
    1   0.5388645   0.5457918   0.5521546   0.5534094   0.5615054   0.5665396
          193         194         195         196         197         198
    1   0.5734166   0.5777881   0.5820523   0.5925514   0.5996390   0.6016892
          199         200         201         202         203         204
    1   0.6091818   0.6112351   0.6162160   0.6252337   0.6296480   0.6323863
          205         206         207         208         209         210
    1   0.6376646   0.6422341   0.6487802   0.6509355   0.6626872   0.6651393
          211         212         213         214         215         216
    1   0.6697598   0.6700682   0.6778226   0.6862588   0.6886212   0.6908086
          217         218         219         220         221         222
    1   0.6993187   0.7117394   0.7177755   0.7193242   0.7220580   0.7355977
          223         224         225         226         227         228
    1   0.7382268   0.7416561   0.7547282   0.7576465   0.7637223   0.7689703
          229         230         231         232         233         234
    1   0.7726742   0.7806231   0.7894021   0.7913070   0.7944261   0.8037447
          235         236         237         238         239         240
    1   0.8050003   0.8073491   0.8097284   0.8261038   0.8278042   0.8302874
          241         242         243         244         245         246
    1   0.8309849   0.8424505   0.8445817   0.8604454   0.8698126   0.8737034
          247         248         249         250         251         252
    1   0.8775227   0.8884823   0.8969465   0.8986635   0.9085212   0.9184400
          253         254         255         256         257         258
    1   0.9271563   0.9334669   0.9423617   0.9461766   0.9664255   0.9755867
          259         260         261         262         263         264
    1   0.9827898   0.9994308   1.0033149   1.0215997   1.0269067   1.0340935
          265         266         267         268         269         270
    1   1.0499907   1.0572905   1.0586945   1.0753861   1.0783557   1.0958644
          271         272         273         274         275         276
    1   1.0999500   1.1037033   1.1128469   1.1194975   1.1291608   1.1376060
          277         278         279         280         281         282
    1   1.1415448   1.1620773   1.1628650   1.1677925   1.1741569   1.1794270
          283         284         285         286         287         288
    1   1.1856739   1.1969548   1.2005165   1.2186341   1.2239229   1.2368839
          289         290         291         292         293         294
    1   1.2402457   1.2621490   1.2756352   1.2871371   1.2905658   1.3163391
          295         296         297         298         299         300
    1   1.3188032   1.3244655   1.3368670   1.3464493   1.3567559   1.3645892
          301         302         303         304         305         306
    1   1.3719682   1.3835324   1.3904650   1.4045593   1.4103799   1.4161157
          307         308         309         310         311         312
    1   1.4327376   1.4356811   1.4494918   1.4521878   1.4605109   1.4647402
          313         314         315         316         317         318
    1   1.4717820   1.4774963   1.4855117   1.5037153   1.5163423   1.5213310
          319         320         321         322         323         324
    1   1.5309257   1.5377218   1.5429632   1.5662156   1.5688216   1.5784674
          325         326         327         328         329         330
    1   1.5817693   1.5924351   1.6040245   1.6188906   1.6308985   1.6343775
          331         332         333         334         335         336
    1   1.6450740   1.6551725   1.6751825   1.6794058   1.6843924   1.6899329
          337         338         339         340         341         342
    1   1.7008097   1.7051824   1.7092073   1.7186969   1.7266849   1.7365275
          343         344         345         346         347         348
    1   1.7442257   1.7469569   1.7522753   1.7535921   1.7601347   1.7686051
          349         350         351         352         353         354
    1   1.7841766   1.7977004   1.8013379   1.8336043   1.8459130   1.8502635
          355         356         357         358         359         360
    1   1.8520482   1.8738988   1.8849522   1.8921505   1.8936050   1.9090160
          361         362         363         364         365         366
    1   1.9187833   1.9301355   1.9456977   1.9558339   1.9686098   1.9722628
          367         368         369         370         371         372
    1   1.9733516   1.9870710   1.9898569   2.0007058   2.0085546   2.0263924
          373         374         375         376         377         378
    1   2.0277787   2.0351444   2.0445988   2.0535513   2.0591365   2.0698591
          379         380         381         382         383         384
    1   2.0827884   2.0900174   2.0944851   2.1040551   2.1230485   2.1355861
          385         386         387         388         389         390
    1   2.1505177   2.1591541   2.1672424   2.1753810   2.1774416   2.1869583
          391         392         393         394         395         396
    1   2.1962664   2.1985018   2.2035863   2.2066641   2.2150917   2.2259662
          397         398         399         400         401         402
    1   2.2334948   2.2390443   2.2517010   2.2584895   2.2704927   2.2824088
          403         404         405         406         407         408
    1   2.2877251   2.2938102   2.3175959   2.3295756   2.3416992   2.3439613
          409         410         411         412         413         414
    1   2.3614851   2.3765066   2.3781081   2.3918128   2.4021857   2.4130885
          415         416         417         418         419         420
    1   2.4197840   2.4205865   2.4369867   2.4553637   2.4659007   2.4863097
          421         422         423         424         425         426
    1   2.4990091   2.5192818   2.5237661   2.5390654   2.5429942   2.5601996
          427         428         429         430         431         432
    1   2.5818456   2.5867570   2.5945967   2.6009667   2.6198593   2.6315445
          433         434         435         436         437         438
    1   2.6366204   2.6475616   2.6635896   2.6731680   2.6845754   2.6852116
          439         440         441         442         443         444
    1   2.6917241   2.7068278   2.7087629   2.7158112   2.7249307   2.7375272
          445         446         447         448         449         450
    1   2.7481248   2.7516779   2.7624049   2.7690028   2.7854092   2.7883533
          451         452         453         454         455         456
    1   2.7948178   2.8000225   2.8040667   2.8198640   2.8267703   2.8373480
          457         458         459         460         461         462
    1   2.8411344   2.8566561   2.8597737   2.8671914   2.8816477   2.8828102
          463         464         465         466         467         468
    1   2.8893951   2.8915902   2.9003724   2.9088873   2.9117493   2.9286721
          469         470         471         472         473         474
    1   2.9349240   2.9455162   2.9521733   2.9602876   2.9619871   2.9791893
          475         476         477         478         479         480
    1   2.9845573   2.9883111   2.9938190   3.0058771   3.0105248   3.0226651
          481         482         483         484         485         486
    1   3.0280219   3.0305134   3.0438810   3.0582088   3.0652407   3.0708626
          487         488         489         490         491         492
    1   3.0784529   3.0820302   3.0893032   3.0988850   3.1045770   3.1181654
          493         494         495         496         497         498
    1   3.1203434   3.1319355   3.1445015   3.1502903   3.1636883   3.1677474
          499         500         501         502         503         504
    1   3.1783246   3.1807566   3.1941039   3.2004305   3.2051641   3.2105439
          505         506         507         508         509         510
    1   3.2182019   3.2265988   3.2357056   3.2475211   3.2496673   3.2531140
          511         512         513         514         515         516
    1   3.2623010   3.2680836   3.2728439   3.2783071   3.2857738   3.2950914
          517         518         519         520         521         522
    1   3.3093081   3.3165747   3.3232576   3.3332150   3.3344395   3.3443102
          523         524         525         526         527         528
    1   3.3510077   3.3594770   3.3654470   3.3771618   3.3841607   3.3894533
          529         530         531         532         533         534
    1   3.3922720   3.4146783   3.4249226   3.4297655   3.4346430   3.4436864
          535         536         537         538         539         540
    1   3.4470768   3.4530931   3.4628620   3.4659882   3.4734755   3.4772071
          541         542         543         544         545         546
    1   3.4876938   3.4947615   3.5014647   3.5048782   3.5097636   3.5152733
          547         548         549         550         551         552
    1   3.5345863   3.5423740   3.5474867   3.5534739   3.5571572   3.5749435
          553         554         555         556         557         558
    1   3.5829685   3.5886591   3.6060367   3.6093266   3.6146631   3.6326040
          559         560         561         562         563         564
    1   3.6396656   3.6595592   3.6657476   3.6752408   3.6847831   3.6916913
          565         566         567         568         569         570
    1   3.6969995   3.7345228   3.7395586   3.7480256   3.7616968   3.7747864
          571         572         573         574         575         576
    1   3.7894765   3.8294671   3.8325530   3.8472309   3.8543565   3.8777367
          577         578         579         580         581         582
    1   3.8893390   3.9119807   3.9272801   3.9431901   3.9595718   3.9662460
          583         584         585         586         587         588
    1   3.9952462   4.0085665   4.0158820   4.0360482   4.0401620   4.0425371
          589         590         591         592         593         594
    1   4.0617476   4.0774715   4.0965958   4.1079716   4.1157402   4.1236186
          595         596         597         598         599         600
    1   4.1554803   4.1715498   4.1733980   4.1908644   4.2088786   4.2201569
          601         602         603         604         605         606
    1   4.2332524   4.2395604   4.2474781   4.2653514   4.2664629   4.2801616
          607         608         609         610         611         612
    1   4.2881959   4.2955779   4.3119523   4.3146133   4.3313115   4.3636961
          613         614         615         616         617         618
    1   4.3801881   4.3968617   4.4174690   4.4357815   4.4473104   4.4671555
          619         620         621         622         623         624
    1   4.4953726   4.5055296   4.5169658   4.5344543   4.5676979   4.5726444
          625         626         627         628         629         630
    1   4.5927793   4.6210944   4.6300022   4.6596057   4.6674691   4.6818130
          631         632         633         634         635         636
    1   4.6938142   4.6997257   4.7328447   4.7870222   4.7978223   4.8130957
          637         638         639         640         641         642
    1   4.8419613   4.8751985   4.9130532   4.9277914   4.9304185   4.9401954
          643         644         645         646         647         648
    1   4.9579704   4.9798440   5.0083577   5.0181738   5.0681063   5.0811797
          649         650         651         652         653         654
    1   5.1247935   5.1478359   5.1571034   5.1824502   5.2422485   5.2775227
          655         656         657         658         659         660
    1   5.2859557   5.3034538   5.3062257   5.3161904   5.3298997   5.3377519
          661         662         663         664         665         666
    1   5.3450192   5.3691748   5.4095341   5.4428265   5.4462671   5.4988600
          667         668         669         670         671         672
    1   5.5016190   5.5127126   5.5227185   5.5250682   5.5310823   5.5569905
          673         674         675         676         677         678
    1   5.5650535   5.5705155   5.5851651   5.6047178   5.6396111   5.6842543
          679         680         681         682         683         684
    1   5.6950365   5.7448561   5.8072928   5.8190069   5.8310703   5.8646476
          685         686         687         688         689         690
    1   5.9038708   5.9404229   5.9515225   5.9970376   6.0539497   6.0688459
          691         692         693         694         695         696
    1   6.1048675   6.1473228   6.2182989   6.2458025   6.2628793   6.3846481
          697         698         699         700         701         702
    1   6.3971389   6.4104296   6.4387743   6.4485354   6.4566649   6.4670529
          703         704         705         706         707         708
    1   6.4713632   6.4831638   6.4870144   6.4905544   6.5685501   6.6336450
          709         710         711         712         713         714
    1   6.6514174   6.6648717   6.7279103   6.7696105   6.7762355   6.7846003
          715         716         717         718         719         720
    1   6.8289567   6.8724296   6.8783760   6.9121226   6.9189769   6.9316256
          721         722         723         724         725         726
    1   6.9350418   6.9658333   7.0080223   7.0527295   7.0944751   7.1141394
          727         728         729         730         731         732
    1   7.1401592   7.1643314   7.3247010   7.3673176   7.3986671   7.4105073
          733         734         735         736         737         738
    1   7.4752940   7.4876785   7.5419377  22.4127100  22.5442650  22.7957593
          739         740         741         742         743         744
    1  22.8203724  22.8361669  22.8484276  22.9130725  22.9598892  23.0093742
          745         746         747         748         749         750
    1  23.0552640  23.0873988  23.1897742  23.3202209  23.5432177  23.6625583
          751         752         753         754         755         756
    1  44.0208225  44.1010380  44.1335570  44.1444683  44.2324247  44.6630045
 SCF time:   CPU 5015.49s  wall 410.00s 
 DFT Correlation          Energy =  -6.09188789069961
 DFT Exchange             Energy = -93.95045700630638
 HF Exchange              Energy = -36.52532302896196
 One-Electron             Energy = -4514.87729075304742
 SCRF wf-dependent energy Energy = -17.21616972496304
 Total Coulomb            Energy = 2054.49183816221512
 Nuclear repulsion Energy = 1584.80285859609353

************** Final PCM Free Energy Summary **************
 G_electrostatic  =      -0.09760373 hartree =     -61.24726299 kcal/mol
 G_cavitation     =       0.00000000 hartree =       0.00000000 kcal/mol
 G_dispersion     =       0.00000000 hartree =       0.00000000 kcal/mol
 G_repulsion      =       0.00000000 hartree =       0.00000000 kcal/mol
 --------------------------------------------------
 Non-electrostatic Free Energy =       0.00000000 hartree =       0.00000000 kcal/mol
 Total                         =      -0.09760373 hartree =     -61.24726299 kcal/mol
 --------------------------------------------------
 SCF Energy (H0 + V/2)                       =   -1029.36643165 
 Solute Internal Energy (H0)                 =   -1029.26882792 
 Total Free Energy (H0 + V/2 + non-elec)     =   -1029.36643165 hartree
                                             = -645937.18814014 kcal/mol
***********************************************************

 SCF   energy = -1029.36643165
 Total energy = -1029.36643165
 MAX_CIS_SUBSPACE fits in available memory
 Direct TDDFT/TDA calculation will be performed
 Exchange:     0.1900 Hartree-Fock + 0.3500 B88 + 0.4600 muB88 + LR-HF
 Correlation:  0.1900 VWN5 + 0.8100 LYP
 Using SG-1 standard quadrature grid
 Triplet excitation energies requested
 Singlet excitation energies requested
 Adding PCM contribution to the XC response (LR-PCM)
 Optical dielectric constant (eps_inf) =  1.78
 CIS energy converged when residual is below 10e- 6
 ---------------------------------------------------
 Iter    Rts Conv    Rts Left    Ttl Dev     Max Dev
 ---------------------------------------------------
   1         0           7      0.001036    0.000168
   2         0           7      0.000372    0.000072
   3         0           7      0.000184    0.000064
   4         0           7      0.000122    0.000064
   5         1           6      0.000068    0.000046
   6         3           4      0.000060    0.000052
   7         5           2      0.000018    0.000016
   8         6           1      0.000005    0.000004
   9         6           1      0.000002    0.000001
  10         7           0      0.000002    0.000000    Roots Converged
 ---------------------------------------------------
 Triplets done: starting singlet calculation
 ---------------------------------------------------
 Iter    Rts Conv    Rts Left    Ttl Dev     Max Dev
 ---------------------------------------------------
  11         0           7      0.002686    0.000475
  12         0           7      0.000706    0.000151
  13         0           7      0.000354    0.000082
  14         0           7      0.000188    0.000047
  15         0           7      0.000084    0.000026
  16         2           5      0.000043    0.000018
  17         3           4      0.000019    0.000009
  18         5           2      0.000011    0.000005
  19         5           2      0.000007    0.000003
  20         6           1      0.000005    0.000001
  21         7           0      0.000004    0.000001    Roots Converged
 ---------------------------------------------------
 
 ---------------------------------------------------
         TDDFT/TDA Excitation Energies              
 ---------------------------------------------------

 Excited state   1: excitation energy (eV) =       1.8376
 Total energy for state   1:                 -1029.29890084 au
    Multiplicity: Triplet
    Trans. Mom.:  0.0000 X   0.0000 Y   0.0000 Z
    Strength   :     0.0000000000
    D(   70) --> V(    1) amplitude = -0.1593
    D(   71) --> V(    1) amplitude = -0.0827
    D(   73) --> V(    1) amplitude =  0.1994
    D(   73) --> V(    2) amplitude = -0.0770
    D(   74) --> V(    1) amplitude =  0.9427

 Excited state   2: excitation energy (eV) =       2.7539
 Total energy for state   2:                 -1029.26522816 au
    Multiplicity: Triplet
    Trans. Mom.:  0.0000 X   0.0000 Y   0.0000 Z
    Strength   :     0.0000000000
    D(   69) --> V(    1) amplitude = -0.0887
    D(   71) --> V(    3) amplitude = -0.0806
    D(   72) --> V(    1) amplitude =  0.1441
    D(   73) --> V(    1) amplitude =  0.8876
    D(   73) --> V(    9) amplitude =  0.0806
    D(   74) --> V(    1) amplitude = -0.1834
    D(   74) --> V(    2) amplitude = -0.2720
    D(   74) --> V(    3) amplitude = -0.1068
    D(   74) --> V(    5) amplitude = -0.0729
    D(   74) --> V(    9) amplitude = -0.0826

 Excited state   3: excitation energy (eV) =       2.9170
 Total energy for state   3:                 -1029.25923391 au
    Multiplicity: Singlet
    Trans. Mom.:  0.0174 X  -0.0933 Y  -3.6564 Z
    Strength   :     0.9560692801
    D(   73) --> V(    1) amplitude =  0.2242
    D(   74) --> V(    1) amplitude =  0.9536

 Excited state   4: excitation energy (eV) =       3.2414
 Total energy for state   4:                 -1029.24731175 au
    Multiplicity: Triplet
    Trans. Mom.:  0.0000 X   0.0000 Y   0.0000 Z
    Strength   :     0.0000000000
    D(   71) --> V(    1) amplitude =  0.1779
    D(   71) --> V(    3) amplitude = -0.0732
    D(   72) --> V(    1) amplitude =  0.8943
    D(   72) --> V(    2) amplitude =  0.1128
    D(   72) --> V(    3) amplitude =  0.0892
    D(   72) --> V(    9) amplitude =  0.0863
    D(   73) --> V(    1) amplitude = -0.1024
    D(   73) --> V(    2) amplitude = -0.1915
    D(   73) --> V(    3) amplitude = -0.1551
    D(   74) --> V(    1) amplitude =  0.0911
    D(   74) --> V(    9) amplitude =  0.0750

 Excited state   5: excitation energy (eV) =       3.5814
 Total energy for state   5:                 -1029.23481760 au
    Multiplicity: Singlet
    Trans. Mom.:  0.0103 X   0.2318 Y   1.4170 Z
    Strength   :     0.1809120042
    D(   70) --> V(    1) amplitude =  0.0787
    D(   71) --> V(    1) amplitude =  0.1757
    D(   72) --> V(    1) amplitude =  0.2427
    D(   73) --> V(    1) amplitude =  0.8994
    D(   74) --> V(    1) amplitude = -0.2224
    D(   74) --> V(    2) amplitude = -0.1058

 Excited state   6: excitation energy (eV) =       3.6038
 Total energy for state   6:                 -1029.23399604 au
    Multiplicity: Triplet
    Trans. Mom.:  0.0000 X   0.0000 Y   0.0000 Z
    Strength   :     0.0000000000
    D(   67) --> V(    1) amplitude =  0.1196
    D(   70) --> V(    1) amplitude =  0.0714
    D(   71) --> V(    1) amplitude =  0.8002
    D(   71) --> V(    9) amplitude =  0.0980
    D(   72) --> V(    1) amplitude = -0.1405
    D(   72) --> V(    2) amplitude = -0.2089
    D(   72) --> V(    3) amplitude = -0.2088
    D(   73) --> V(    1) amplitude =  0.1860
    D(   73) --> V(    5) amplitude = -0.1312
    D(   74) --> V(    2) amplitude =  0.3460
    D(   74) --> V(    9) amplitude =  0.1070

 Excited state   7: excitation energy (eV) =       3.8880
 Total energy for state   7:                 -1029.22355151 au
    Multiplicity: Triplet
    Trans. Mom.:  0.0000 X   0.0000 Y   0.0000 Z
    Strength   :     0.0000000000
    D(   70) --> V(    1) amplitude = -0.2446
    D(   70) --> V(   26) amplitude = -0.0822
    D(   71) --> V(    1) amplitude = -0.2579
    D(   71) --> V(    2) amplitude = -0.2188
    D(   72) --> V(    1) amplitude =  0.1601
    D(   73) --> V(    1) amplitude =  0.1504
    D(   73) --> V(    2) amplitude =  0.3301
    D(   73) --> V(    9) amplitude = -0.1348
    D(   74) --> V(    2) amplitude =  0.7442
    D(   74) --> V(    3) amplitude = -0.1080
    D(   74) --> V(    9) amplitude = -0.1291

 Excited state   8: excitation energy (eV) =       3.8969
 Total energy for state   8:                 -1029.22322337 au
    Multiplicity: Singlet
    Trans. Mom.: -0.0866 X  -0.1360 Y   0.4810 Z
    Strength   :     0.0245650195
    D(   72) --> V(    1) amplitude =  0.9320
    D(   73) --> V(    1) amplitude = -0.2429
    D(   73) --> V(    2) amplitude = -0.1036
    D(   74) --> V(    3) amplitude =  0.1320
    D(   74) --> V(    5) amplitude = -0.0709

 Excited state   9: excitation energy (eV) =       4.0841
 Total energy for state   9:                 -1029.21634217 au
    Multiplicity: Triplet
    Trans. Mom.:  0.0000 X   0.0000 Y   0.0000 Z
    Strength   :     0.0000000000
    D(   58) --> V(    1) amplitude =  0.1057
    D(   67) --> V(    1) amplitude = -0.0730
    D(   69) --> V(    1) amplitude =  0.2789
    D(   69) --> V(    9) amplitude = -0.0764
    D(   70) --> V(    1) amplitude =  0.7734
    D(   70) --> V(    2) amplitude = -0.1599
    D(   71) --> V(    1) amplitude = -0.2415
    D(   71) --> V(    2) amplitude =  0.0758
    D(   71) --> V(    3) amplitude =  0.0737
    D(   72) --> V(    3) amplitude = -0.0771
    D(   73) --> V(    1) amplitude =  0.1266
    D(   73) --> V(    5) amplitude = -0.1468
    D(   74) --> V(    2) amplitude =  0.1925
    D(   74) --> V(    3) amplitude = -0.0919
    D(   74) --> V(    5) amplitude = -0.0827
    D(   74) --> V(    9) amplitude =  0.2142

 Excited state  10: excitation energy (eV) =       4.3038
 Total energy for state  10:                 -1029.20826979 au
    Multiplicity: Triplet
    Trans. Mom.:  0.0000 X   0.0000 Y   0.0000 Z
    Strength   :     0.0000000000
    D(   67) --> V(    1) amplitude = -0.0974
    D(   69) --> V(    1) amplitude =  0.0881
    D(   69) --> V(    2) amplitude = -0.0742
    D(   71) --> V(    1) amplitude =  0.0851
    D(   71) --> V(    2) amplitude =  0.0984
    D(   71) --> V(    3) amplitude = -0.1495
    D(   72) --> V(    1) amplitude = -0.0802
    D(   72) --> V(    2) amplitude =  0.1907
    D(   72) --> V(    3) amplitude =  0.1105
    D(   72) --> V(    5) amplitude = -0.4059
    D(   73) --> V(    2) amplitude =  0.4142
    D(   73) --> V(    3) amplitude = -0.5059
    D(   73) --> V(    9) amplitude =  0.1107
    D(   74) --> V(    5) amplitude = -0.4145
    D(   74) --> V(    9) amplitude = -0.1144

 Excited state  11: excitation energy (eV) =       4.5999
 Total energy for state  11:                 -1029.19738755 au
    Multiplicity: Singlet
    Trans. Mom.:  0.0066 X   0.4040 Y  -0.5859 Z
    Strength   :     0.0570945016
    D(   67) --> V(    1) amplitude =  0.0718
    D(   71) --> V(    1) amplitude =  0.8177
    D(   72) --> V(    2) amplitude = -0.1724
    D(   73) --> V(    1) amplitude = -0.2039
    D(   73) --> V(    2) amplitude = -0.2941
    D(   73) --> V(    3) amplitude =  0.1024
    D(   73) --> V(    9) amplitude =  0.0739
    D(   74) --> V(    2) amplitude = -0.3103
    D(   74) --> V(    5) amplitude =  0.1446

 Excited state  12: excitation energy (eV) =       5.1444
 Total energy for state  12:                 -1029.17737819 au
    Multiplicity: Singlet
    Trans. Mom.: -0.1124 X   1.1272 Y   0.2333 Z
    Strength   :     0.1685804585
    D(   69) --> V(    1) amplitude =  0.0826
    D(   70) --> V(    1) amplitude =  0.4249
    D(   71) --> V(    1) amplitude =  0.3419
    D(   71) --> V(    3) amplitude =  0.0975
    D(   71) --> V(    5) amplitude =  0.0896
    D(   72) --> V(    1) amplitude =  0.0967
    D(   72) --> V(    5) amplitude =  0.1079
    D(   73) --> V(    2) amplitude =  0.1781
    D(   73) --> V(    5) amplitude = -0.0734
    D(   73) --> V(    9) amplitude = -0.1041
    D(   74) --> V(    2) amplitude =  0.7032
    D(   74) --> V(    3) amplitude = -0.2606

 Excited state  13: excitation energy (eV) =       5.3546
 Total energy for state  13:                 -1029.16965373 au
    Multiplicity: Singlet
    Trans. Mom.:  0.0083 X   0.5720 Y  -0.7500 Z
    Strength   :     0.1167362529
    D(   70) --> V(    1) amplitude = -0.1694
    D(   71) --> V(    2) amplitude = -0.1279
    D(   71) --> V(    5) amplitude = -0.1323
    D(   72) --> V(    1) amplitude = -0.1237
    D(   72) --> V(    5) amplitude =  0.1112
    D(   72) --> V(    9) amplitude =  0.1892
    D(   73) --> V(    1) amplitude =  0.0851
    D(   73) --> V(    2) amplitude = -0.4759
    D(   73) --> V(    5) amplitude =  0.1416
    D(   74) --> V(    2) amplitude =  0.4684
    D(   74) --> V(    3) amplitude =  0.5890

 Excited state  14: excitation energy (eV) =       5.5162
 Total energy for state  14:                 -1029.16371682 au
    Multiplicity: Singlet
    Trans. Mom.:  0.1529 X  -0.7544 Y  -0.1251 Z
    Strength   :     0.0821811180
    D(   69) --> V(    1) amplitude =  0.1128
    D(   70) --> V(    1) amplitude =  0.7724
    D(   71) --> V(    5) amplitude = -0.0821
    D(   72) --> V(    1) amplitude = -0.1487
    D(   72) --> V(    2) amplitude =  0.1454
    D(   72) --> V(    9) amplitude =  0.1137
    D(   73) --> V(    3) amplitude = -0.1893
    D(   74) --> V(    2) amplitude = -0.2920
    D(   74) --> V(    3) amplitude =  0.2790
    D(   74) --> V(    5) amplitude = -0.2652
 
 ---------------------------------------------------

 Direct TDDFT calculation will be performed
 Exchange:     0.1900 Hartree-Fock + 0.3500 B88 + 0.4600 muB88 + LR-HF
 Correlation:  0.1900 VWN5 + 0.8100 LYP
 Using SG-1 standard quadrature grid
 ---------------------------------------------------
 Iter    Rts Conv    Rts Left    Ttl Dev     Max Dev
 ---------------------------------------------------
   1         0           7      0.001057    0.000175
   2         0           7      0.000334    0.000059
   3         0           7      0.000180    0.000034
   4         0           7      0.000102    0.000022
   5         0           7      0.000065    0.000019
   6         0           7      0.000035    0.000013
   7         3           4      0.000018    0.000007
   8         6           1      0.000006    0.000002
   9         6           1      0.000005    0.000001
  10         7           0      0.000004    0.000001    Roots Converged
 ---------------------------------------------------
 Triplets done: starting singlet calculation
 ---------------------------------------------------
 Iter    Rts Conv    Rts Left    Ttl Dev     Max Dev
 ---------------------------------------------------
  11         0           7      0.001528    0.000269
  12         0           7      0.000538    0.000119
  13         0           7      0.000248    0.000049
  14         0           7      0.000152    0.000031
  15         0           7      0.000117    0.000032
[...]
      XZZZ     -34.5487   YZZZ      -5.4203   ZZZZ   -4995.7838
    5th-Order Moments (Debye-Ang^4)
       500      -4.4847    410       7.4714    320      26.3510
       230      -9.6878    140    -109.8748    050    1095.7452
       401     -51.5361    311    -251.4037    221     218.8024
       131    -119.6508    041    1401.0170    302    -140.2590
       212     530.6634    122      -9.1657    032    1105.2378
       203    -647.9001    113       1.1026    023    -776.6863
       104    -196.5176    014     219.8400    005  -21818.9815
 -----------------------------------------------------------------
 -----------------------------------------------------------------
                 RPA Excited-State Multipoles, State    4   
                  LMN = < X^L Y^M Z^N >
 -----------------------------------------------------------------
    Charge (ESU x 10^10)
                 4.8032
    Dipole Moment (Debye)
         X      -0.8120      Y      -2.6262      Z      -6.2924
       Tot       6.8666
    Quadrupole Moments (Debye-Ang)
        XX    -121.4341     XY       3.1570     YY     -83.4017
        XZ      -3.4943     YZ     -12.0622     ZZ     -27.9083
    Octopole Moments (Debye-Ang^2)
       XXX      -2.9221    XXY      -5.6501    XYY     -10.4432
       YYY      25.8786    XXZ       1.1007    XYZ      16.4111
       YYZ      24.3919    XZZ      -2.7670    YZZ     -92.8655
       ZZZ    -414.6355
    Hexadecapole Moments (Debye-Ang^3)
      XXXX    -150.6539   XXXY       2.3447   XXYY    -351.2301
      XYYY      16.1553   YYYY   -1488.2969   XXXZ      53.1947
      XXYZ     -27.3730   XYYZ       7.4234   YYYZ    -201.3826
      XXZZ   -1383.0904   XYZZ      34.3139   YYZZ   -1227.4412
      XZZZ     -50.6302   YZZZ     -80.6768   ZZZZ   -5119.1054
    5th-Order Moments (Debye-Ang^4)
       500      -5.3862    410       7.2403    320      25.2484
       230     -11.4586    140    -113.5286    050    1006.2267
       401     -47.4230    311    -247.5210    221     231.2543
       131    -112.2939    041    1545.2894    302    -145.7718
       212     526.7949    122     -34.7861    032    1106.8917
       203    -640.5689    113      36.8623    023    -359.4036
       104    -271.9025    014      96.9766    005  -23067.3024
 -----------------------------------------------------------------
 -----------------------------------------------------------------
                 RPA Excited-State Multipoles, State    5   
                  LMN = < X^L Y^M Z^N >
 -----------------------------------------------------------------
    Charge (ESU x 10^10)
                 4.8032
    Dipole Moment (Debye)
         X      -0.3279      Y      -0.2910      Z     -10.9011
       Tot      10.9099
    Quadrupole Moments (Debye-Ang)
        XX    -121.4988     XY       2.4709     YY     -86.3312
        XZ      -1.9695     YZ      -2.9299     ZZ     -25.0881
    Octopole Moments (Debye-Ang^2)
       XXX      -2.2545    XXY      -4.3658    XYY      -9.2048
       YYY      33.1234    XXZ      -1.5977    XYZ      14.2550
       YYZ       6.0014    XZZ       4.9347    YZZ     -67.0214
       ZZZ    -462.2024
    Hexadecapole Moments (Debye-Ang^3)
      XXXX    -150.9744   XXXY       1.2327   XXYY    -353.0503
      XYYY      13.0254   YYYY   -1503.4767   XXXZ      55.3935
      XXYZ     -22.3685   XYYZ      11.6579   YYYZ    -162.8109
      XXZZ   -1382.0971   XYZZ      23.8579   YYZZ   -1262.6851
      XZZZ     -27.1777   YZZZ      66.3637   ZZZZ   -4886.0406
    5th-Order Moments (Debye-Ang^4)
       500      -3.8530    410       9.1821    320      26.7609
       230      -7.2737    140    -105.4478    050    1038.0655
       401     -51.9114    311    -250.7197    221     221.6139
       131    -121.8492    041    1430.1551    302    -134.1542
       212     541.2410    122     -12.0078    032    1211.4554
       203    -671.8963    113       3.5720    023    -647.5048
       104    -138.8865    014     442.0784    005  -23256.2540
 -----------------------------------------------------------------
 -----------------------------------------------------------------
                 RPA Excited-State Multipoles, State    6   
                  LMN = < X^L Y^M Z^N >
 -----------------------------------------------------------------
    Charge (ESU x 10^10)
                 4.8032
    Dipole Moment (Debye)
         X      -0.4162      Y      -3.5422      Z     -11.5742
       Tot      12.1113
    Quadrupole Moments (Debye-Ang)
        XX    -121.7662     XY       2.5067     YY     -86.3665
        XZ      -3.0939     YZ      -7.6964     ZZ     -15.4891
    Octopole Moments (Debye-Ang^2)
       XXX      -2.2828    XXY      -6.6780    XYY      -9.6416
       YYY      22.7721    XXZ      -2.3351    XYZ      14.3258
       YYZ       8.6164    XZZ       0.6542    YZZ     -83.2749
       ZZZ    -456.3823
    Hexadecapole Moments (Debye-Ang^3)
      XXXX    -151.7696   XXXY       1.2641   XXYY    -353.4080
      XYYY      14.4331   YYYY   -1510.0665   XXXZ      53.3293
      XXYZ     -23.7983   XYYZ       9.6831   YYYZ    -182.2055
      XXZZ   -1380.6120   XYZZ      25.9213   YYZZ   -1257.3325
      XZZZ     -42.2129   YZZZ     -96.3722   ZZZZ   -4676.7605
    5th-Order Moments (Debye-Ang^4)
       500      -3.7364    410       4.5858    320      26.6508
       230     -16.9686    140    -109.4093    050     995.1599
       401     -53.2469    311    -250.6480    221     223.1482
       131    -120.6348    041    1490.2925    302    -141.0516
       212     526.6354    122     -24.4419    032    1192.3195
       203    -674.7299    113       1.5125    023    -586.8592
       104    -222.4364    014     307.4805    005  -22835.0612
 -----------------------------------------------------------------
 -----------------------------------------------------------------
                 RPA Excited-State Multipoles, State    7   
                  LMN = < X^L Y^M Z^N >
 -----------------------------------------------------------------
    Charge (ESU x 10^10)
                 4.8032
    Dipole Moment (Debye)
         X      -0.5543      Y       0.6645      Z      -7.9927
       Tot       8.0394
    Quadrupole Moments (Debye-Ang)
        XX    -121.6323     XY       2.1542     YY     -82.9814
        XZ      -2.0417     YZ      -6.8781     ZZ     -36.8863
    Octopole Moments (Debye-Ang^2)
       XXX      -2.6665    XXY      -3.6959    XYY      -9.4109
       YYY      37.3638    XXZ       0.0081    XYZ      13.9722
       YYZ       0.2725    XZZ       2.0521    YZZ     -69.1345
       ZZZ    -379.8667
    Hexadecapole Moments (Debye-Ang^3)
      XXXX    -151.3025   XXXY       0.7762   XXYY    -351.0087
      XYYY      11.2878   YYYY   -1476.4201   XXXZ      55.3228
      XXYZ     -24.9608   XYYZ      11.0738   YYYZ    -160.4681
      XXZZ   -1392.6091   XYZZ      21.1677   YYZZ   -1261.3340
      XZZZ     -26.3632   YZZZ      -4.1107   ZZZZ   -5138.1642
    5th-Order Moments (Debye-Ang^4)
       500      -5.0902    410      10.4581    320      26.1380
       230      -4.2494    140    -106.7532    050    1082.8871
       401     -48.8350    311    -251.1215    221     218.9814
       131    -121.4787    041    1394.4958    302    -140.2465
       212     540.9032    122     -10.0561    032    1187.4709
       203    -619.3594    113      -3.0687    023    -701.9047
       104    -191.6015    014     402.7492    005  -21059.3679
 -----------------------------------------------------------------
 -----------------------------------------------------------------
                 RPA Excited-State Multipoles, State    8   
                  LMN = < X^L Y^M Z^N >
 -----------------------------------------------------------------
    Charge (ESU x 10^10)
                 4.8032
    Dipole Moment (Debye)
         X      -0.8934      Y      -2.9229      Z      -0.9542
       Tot       3.2019
    Quadrupole Moments (Debye-Ang)
        XX    -121.4476     XY       3.4806     YY     -83.4715
        XZ      -3.3109     YZ     -11.7184     ZZ     -24.7749
    Octopole Moments (Debye-Ang^2)
       XXX      -3.0010    XXY      -5.8615    XYY     -10.6175
       YYY      24.3475    XXZ       4.4652    XYZ      17.1353
       YYZ      34.7268    XZZ      -2.6027    YZZ     -86.4699
       ZZZ    -348.5519
    Hexadecapole Moments (Debye-Ang^3)
      XXXX    -150.7632   XXXY       3.0363   XXYY    -351.5529
      XYYY      16.9245   YYYY   -1490.9693   XXXZ      53.7505
      XXYZ     -26.6947   XYYZ       7.2350   YYYZ    -200.4767
      XXZZ   -1381.2547   XYZZ      38.3654   YYZZ   -1218.3794
      XZZZ     -44.4656   YZZZ     -68.9478   ZZZZ   -5099.7839
    5th-Order Moments (Debye-Ang^4)
       500      -5.4576    410       6.8533    320      25.2148
       230     -13.0251    140    -115.0968    050     997.7905
       401     -41.5621    311    -246.0783    221     237.8744
       131    -110.9649    041    1591.4954    302    -144.4865
       212     531.6186    122     -36.8261    032    1112.4870
       203    -596.5765    113      47.6728    023    -223.9595
       104    -264.4522    014     243.3533    005  -21978.2130
 -----------------------------------------------------------------
 -----------------------------------------------------------------
                 RPA Excited-State Multipoles, State    9   
                  LMN = < X^L Y^M Z^N >
 -----------------------------------------------------------------
    Charge (ESU x 10^10)
                 4.8032
    Dipole Moment (Debye)
         X      -0.6414      Y       1.3812      Z     -13.0889
       Tot      13.1772
    Quadrupole Moments (Debye-Ang)
        XX    -121.5678     XY       1.8830     YY     -79.2348
        XZ      -2.4554     YZ      -6.6176     ZZ     -44.9913
    Octopole Moments (Debye-Ang^2)
       XXX      -2.7875    XXY      -3.4230    XYY      -9.7037
       YYY      44.0609    XXZ      -3.4220    XYZ      13.9926
       YYZ      -6.1906    XZZ       1.6920    YZZ     -81.2407
       ZZZ    -454.7278
    Hexadecapole Moments (Debye-Ang^3)
      XXXX    -151.1671   XXXY       0.4502   XXYY    -349.5642
      XYYY       9.3441   YYYY   -1442.2091   XXXZ      54.5935
      XXYZ     -25.8131   XYYZ       9.7436   YYYZ    -145.6694
      XXZZ   -1394.6329   XYZZ      19.3507   YYZZ   -1260.1303
      XZZZ     -34.9540   YZZZ      38.0147   ZZZZ   -5345.3663
    5th-Order Moments (Debye-Ang^4)
       500      -5.3675    410      10.6821    320      25.8607
       230      -1.9537    140    -108.6904    050    1139.0312
       401     -55.1535    311    -251.3411    221     214.5326
       131    -120.1033    041    1363.3260    302    -141.1601
       212     535.2188    122      -6.0232    032    1112.2471
       203    -669.2844    113      -0.5599    023    -796.1399
       104    -194.7869    014     143.0615    005  -22893.8480
 -----------------------------------------------------------------
 -----------------------------------------------------------------
                 RPA Excited-State Multipoles, State   10   
                  LMN = < X^L Y^M Z^N >
 -----------------------------------------------------------------
    Charge (ESU x 10^10)
                 4.8032
    Dipole Moment (Debye)
         X      -0.6414      Y      -0.1711      Z     -10.7464
       Tot      10.7669
    Quadrupole Moments (Debye-Ang)
        XX    -121.7519     XY       2.2492     YY     -83.0672
        XZ      -2.6274     YZ     -11.2768     ZZ     -38.3450
    Octopole Moments (Debye-Ang^2)
       XXX      -2.8283    XXY      -4.2532    XYY      -9.5894
       YYY      34.1810    XXZ      -1.4375    XYZ      14.1070
       YYZ      -2.2199    XZZ      -0.5225    YZZ     -73.3991
       ZZZ    -432.9845
    Hexadecapole Moments (Debye-Ang^3)
      XXXX    -151.9231   XXXY       0.7534   XXYY    -351.1982
      XYYY      12.8063   YYYY   -1486.6773   XXXZ      54.2556
      XXYZ     -27.7735   XYYZ      10.4198   YYYZ    -183.8508
      XXZZ   -1394.8999   XYZZ      22.1241   YYZZ   -1260.3324
      XZZZ     -36.7435   YZZZ     -85.9469   ZZZZ   -5212.0725
    5th-Order Moments (Debye-Ang^4)
       500      -5.4678    410       9.6876    320      25.6567
       230      -5.0607    140    -106.8225    050    1054.3786
       401     -51.4485    311    -251.3934    221     217.4317
       131    -120.1280    041    1401.2935    302    -145.6442
       212     537.5107    122     -16.7526    032    1191.9317
       203    -648.0638    113      -4.2125    023    -712.4579
       104    -243.7711    014     371.9804    005  -22210.6748
 -----------------------------------------------------------------
 -----------------------------------------------------------------
                 RPA Excited-State Multipoles, State   11   
                  LMN = < X^L Y^M Z^N >
 -----------------------------------------------------------------
    Charge (ESU x 10^10)
                 4.8032
    Dipole Moment (Debye)
         X      -0.3040      Y      -1.3762      Z      -8.6588
       Tot       8.7727
    Quadrupole Moments (Debye-Ang)
        XX    -121.7689     XY       2.2048     YY     -85.0992
        XZ      -2.1297     YZ      -1.2513     ZZ     -15.5121
    Octopole Moments (Debye-Ang^2)
       XXX      -2.2081    XXY      -5.0385    XYY      -8.8946
       YYY      26.7443    XXZ      -0.3912    XYZ      14.3942
       YYZ      -0.8676    XZZ       5.5194    YZZ     -81.5183
       ZZZ    -400.1225
    Hexadecapole Moments (Debye-Ang^3)
      XXXX    -151.7938   XXXY       1.0358   XXYY    -353.0942
      XYYY      11.4004   YYYY   -1488.1243   XXXZ      55.2506
      XXYZ     -21.4788   XYYZ      10.0199   YYYZ    -136.9046
      XXZZ   -1381.2084   XYZZ      20.2236   YYZZ   -1236.5677
      XZZZ     -27.5277   YZZZ      73.6458   ZZZZ   -4582.5167
    5th-Order Moments (Debye-Ang^4)
       500      -3.7284    410       7.8939    320      27.1858
       230     -11.5653    140    -102.9441    050     992.6595
       401     -49.4521    311    -250.5437    221     220.0557
       131    -118.1500    041    1368.3310    302    -134.0738
       212     534.8954    122      -4.0247    032    1113.3122
       203    -638.3251    113       7.1699    023    -771.9543
       104    -124.7994    014     181.3539    005  -21250.0716
 -----------------------------------------------------------------
 -----------------------------------------------------------------
                 RPA Excited-State Multipoles, State   12   
                  LMN = < X^L Y^M Z^N >
 -----------------------------------------------------------------
    Charge (ESU x 10^10)
                 4.8032
    Dipole Moment (Debye)
         X      -0.6398      Y       1.1183      Z      -8.1615
       Tot       8.2625
    Quadrupole Moments (Debye-Ang)
        XX    -122.0624     XY       2.0468     YY     -81.9010
        XZ      -2.2398     YZ      -9.2667     ZZ     -34.7083
    Octopole Moments (Debye-Ang^2)
       XXX      -2.8148    XXY      -3.8513    XYY      -9.8297
       YYY      40.3553    XXZ       0.3348    XYZ      13.8832
       YYZ      -0.2704    XZZ       1.0114    YZZ     -69.4397
       ZZZ    -381.8785
    Hexadecapole Moments (Debye-Ang^3)
      XXXX    -152.9733   XXXY       0.6839   XXYY    -352.2712
      XYYY      10.6453   YYYY   -1467.6303   XXXZ      55.0319
      XXYZ     -26.6242   XYYZ      10.4210   YYYZ    -167.2951
      XXZZ   -1395.8486   XYZZ      21.0183   YYZZ   -1256.7554
      XZZZ     -29.5293   YZZZ     -55.2914   ZZZZ   -5067.0980
    5th-Order Moments (Debye-Ang^4)
       500      -5.5313    410       9.3245    320      25.4950
       230      -5.1032    140    -109.5886    050    1105.8730
       401     -47.4365    311    -252.0243    221     220.6458
       131    -120.7434    041    1400.1564    302    -143.0139
       212     541.0820    122     -12.2788    032    1181.7656
       203    -612.9783    113      -2.7784    023    -727.8617
       104    -209.7537    014     414.3046    005  -20915.1088
 -----------------------------------------------------------------
 -----------------------------------------------------------------
                 RPA Excited-State Multipoles, State   13   
                  LMN = < X^L Y^M Z^N >
 -----------------------------------------------------------------
    Charge (ESU x 10^10)
                 4.8032
    Dipole Moment (Debye)
         X      -0.6336      Y       0.6409      Z      -7.9212
       Tot       7.9722
    Quadrupole Moments (Debye-Ang)
        XX    -122.3280     XY       2.0714     YY     -81.9092
        XZ      -2.7005     YZ     -10.5652     ZZ     -37.3758
    Octopole Moments (Debye-Ang^2)
       XXX      -2.4267    XXY      -3.6442    XYY     -10.2972
       YYY      41.5770    XXZ      -1.3337    XYZ      13.9934
       YYZ       6.2467    XZZ      -1.1717    YZZ     -93.5906
       ZZZ    -371.8488
    Hexadecapole Moments (Debye-Ang^3)
      XXXX    -155.0742   XXXY      -0.0553   XXYY    -353.2371
      XYYY      11.3278   YYYY   -1462.2546   XXXZ      54.6805
      XXYZ     -27.2415   XYYZ       9.2635   YYYZ    -180.1711
      XXZZ   -1399.4761   XYZZ      22.5073   YYZZ   -1271.2431
      XZZZ     -41.2947   YZZZ     -86.4234   ZZZZ   -5083.7236
    5th-Order Moments (Debye-Ang^4)
       500      -1.9554    410      11.6141    320      25.8007
       230      -2.2372    140    -113.0329    050    1128.7692
       401     -55.8633    311    -253.4840    221     219.4548
       131    -117.9042    041    1449.4220    302    -145.2375
       212     527.4849    122     -21.4578    032    1105.7045
       203    -649.5487    113      -0.0169    023    -618.6315
       104    -245.0104    014    -153.7336    005  -20802.0521
 -----------------------------------------------------------------
 -----------------------------------------------------------------
                 RPA Excited-State Multipoles, State   14   
                  LMN = < X^L Y^M Z^N >
 -----------------------------------------------------------------
    Charge (ESU x 10^10)
                 4.8032
    Dipole Moment (Debye)
         X      -0.6803      Y       1.4006      Z     -14.0653
       Tot      14.1513
    Quadrupole Moments (Debye-Ang)
        XX    -122.2022     XY       1.4303     YY     -76.0220
        XZ      -2.8355     YZ      -5.2262     ZZ     -39.5512
    Octopole Moments (Debye-Ang^2)
       XXX      -2.7164    XXY      -3.9573    XYY     -10.3773
       YYY      49.9631    XXZ      -4.3175    XYZ      13.9390
       YYZ     -10.3813    XZZ       1.6387    YZZ     -95.1337
       ZZZ    -470.3803
    Hexadecapole Moments (Debye-Ang^3)
      XXXX    -154.0087   XXXY      -0.5469   XXYY    -350.5674
      XYYY       6.7413   YYYY   -1405.1231   XXXZ      53.9788
      XXYZ     -24.7403   XYYZ       8.2444   YYYZ    -134.7479
      XXZZ   -1397.8671   XYZZ      16.8829   YYZZ   -1247.2755
      XZZZ     -41.1060   YZZZ      30.3704   ZZZZ   -5171.4014
    5th-Order Moments (Debye-Ang^4)
       500      -4.2361    410       9.1261    320      25.2756
       230      -2.3228    140    -114.1977    050    1216.8669
       401     -58.7367    311    -253.0895    221     212.0659
       131    -117.9720    041    1346.5966    302    -141.9948
       212     526.7613    122      -5.5331    032    1048.5154
       203    -691.2221    113       1.1087    023    -898.3189
       104    -194.1896    014    -127.1564    005  -22874.6258
 -----------------------------------------------------------------
 Total job time:  3907.38s(wall), 54935.78s(cpu) 
 Wed Jan 29 19:31:44 2025

        *************************************************************
        *                                                           *
        *  Thank you very much for using Q-Chem.  Have a nice day.  *
        *                                                           *
        *************************************************************


