
Running Job 1 of 1 Delphinidin_H_tddft_full.in
qchem Delphinidin_H_tddft_full.in_1882060.0 /data/brussel/103/vsc10365/activedata/TDDFTAnthocyanidines/qchem1882060/ 1
/apps/brussel/RL8/skylake/software/Q-Chem/6.2.0/exe/qcprog.exe_s Delphinidin_H_tddft_full.in_1882060.0 /data/brussel/103/vsc10365/activedata/TDDFTAnthocyanidines/qchem1882060/
                  Welcome to Q-Chem
     A Quantum Leap Into The Future Of Chemistry


 Q-Chem 6.2, Q-Chem, Inc., Pleasanton, CA (2024)

 License issued to: SRG Prof. Dr. Frank De Proft, Vrije Universiteit Brussel

 E. Epifanovsky,  A. T. B. Gilbert,  Xintian Feng,  Joonho Lee,  Yuezhi Mao,  
 N. Mardirossian,  P. Pokhilko,  A. White,  M. Wormit,  M. P. Coons,  
 A. L. Dempwolff,  Zhengting Gan,  D. Hait,  P. R. Horn,  L. D. Jacobson,  
 I. Kaliman,  J. Kussmann,  A. W. Lange,  Ka Un Lao,  D. S. Levine,  Jie Liu,  
 S. C. McKenzie,  A. F. Morrison,  K. D. Nanda,  F. Plasser,  D. R. Rehn,  
 M. L. Vidal,  Zhi-Qiang You,  Ying Zhu,  Huseyin Aksu,  B. Alam,  
 B. Albrecht,  A. Aldossary,  E. Alguire,  J. H. Andersen,  
 J. E. Arias-Martinez,  V. Athavale,  D. Barton,  K. Begam,  A. Behn,  
 N. Bellonzi,  Y. A. Bernard,  E. J. Berquist,  H. Burton,  A. Carreras,  
 K. Carter-Fenk,  Mathew Chow,  Romit Chakraborty,  Chandrima Chakravarty,  
 Junhan Chen,  A. D. Chien,  K. D. Closser,  V. Cofer-Shabica,  L. Cunha,  
 S. Dasgupta,  Jia Deng,  Joseph Dickinson,  M. de Wergifosse,  
 M. Diedenhofen,  Hainam Do,  Wenjie Dou,  S. Ehlert,  Po-Tung Fang,  
 S. Fatehi,  Qingguo Feng,  Jonathan Fetherolf,  T. Friedhoff,  
 Thomas Froitzheim,  Sarai Folkestad,  B. Ganoe,  J. Gayvert,  Qinghui Ge,  
 G. Gidofalvi,  M. Gimferrer,  M. Goldey,  Montgomery Gray,  J. Gomes,  
 C. Gonzalez-Espinoza,  S. Gulania,  A. Gunina,  J. A. Gyamfi,  
 M. W. D. Hanson-Heine,  P. H. P. Harbach,  A. W. Hauser,  M. F. Herbst,  
 M. Hernandez Vera,  M. Hodecker,  Z. C. Holden,  S. Houck,  Xunkun Huang,  
 Kerwin Hui,  B. C. Huynh,  K. Ikeda,  M. Ivanov,  Nayanthara K. Jayadev,  
 Hyunjun Ji,  Zuxin Jin,  Hanjie Jiang,  Subrata Jana,  B. Kaduk,  
 S. Kaehler,  R. Kang,  K. Khistyaev,  Jaehoon Kim,  Yongbin Kim,  
 P. Klunzinger,  Z. Koczor-Benda,  Joong Hoon Koh,  D. Kosenkov,  
 Saikiran Kotaru,  L. Koulias,  T. Kowalczyk,  C. M. Krauter,  K. Kue,  
 A. Kunitsa,  T. Kus,  A. Landau,  K. V. Lawler,  D. Lefrancois,  S. Lehtola,  
 Rain Li,  Shaozhi Li,  Tao E. Li,  Yi-Pei Li,  Jiashu Liang,  M. Liebenthal,  
 Hung-Hsuan Lin,  You-Sheng Lin,  Fenglai Liu,  Kuan-Yu Liu,  Xiao Liu,  
 M. Loipersberger,  A. Luenser,  C. Malbon,  Aniket Mandal,  Manisha,  
 A. Manjanath,  P. Manohar,  E. Mansoor,  S. F. Manzer,  Shan-Ping Mao,  
 A. V. Marenich,  T. Markovich,  S. Mason,  F. Matz,  S. A. Maurer,  
 Samuel May,  Alexandra McIsaac,  P. F. McLaughlin,  M. F. S. J. Menger,  
 J.-M. Mewes,  S. A. Mewes,  P. Morgante,  Mohammad Mostafanejad,  
 Madhubani Mukherjee,  J. W. Mullinax,  Quyen Nguyen,  Avik Kumar Ojha,  
 K. J. Oosterbaan,  Eno Paenurk,  Xiaoliang Pan,  G. Paran,  V. Parravicini,  
 Alexander C. Paul,  Suranjan K. Paul,  F. Pavosevic,  Zheng Pei,  S. Prager,  
 E. I. Proynov,  E. Ramos,  B. Rana,  A. E. Rask,  A. Rettig,  R. M. Richard,  
 F. Rob,  E. Rossomme,  T. Scheele,  M. Scheurer,  M. Schneider,  
 P. E. Schneider,  Tim K. Schramm,  N. Sergueev,  S. M. Sharada,  
 Hengyuan Shen,  W. Skomorowski,  D. W. Small,  C. J. Stein,  
 Alistair J. Sterling,  Yingli Su,  Yu-Chuan Su,  E. J. Sundstrom,  
 J. Talbot,  Zhen Tao,  J. Thirman,  Hung-Yi Tsai,  T. Tsuchimochi,  
 N. M. Tubman,  C. Utku,  S. P. Veccham,  O. Vydrov,  Rahel Weiss,  
 J. Wenzel,  Jonathan Wong,  J. Witte,  H. Wu,  Yanze Wu,  A. Yamada,  
 Chou-Hsun Yang,  Kun Yao,  S. Yeganeh,  S. R. Yost,  Qi Yu,  A. Zech,  
 F. Zeller,  Chongxiao Zhao,  Igor Ying Zhang,  Xing Zhang,  Yu Zhang,  
 D. Zuev,  A. Aspuru-Guzik,  A. T. Bell,  N. A. Besley,  K. B. Bravaya,  
 B. R. Brooks,  D. Casanova,  Jeng-Da Chai,  Hsing-Ta Chen,  S. Coriani,  
 C. J. Cramer,  A. E. DePrince, III,  R. A. DiStasio Jr.,  A. Dreuw,  
 B. D. Dunietz,  T. R. Furlani,  W. A. Goddard III,  S. Grimme,  
 S. Hammes-Schiffer,  T. Head-Gordon,  W. J. Hehre,  Chao-Ping Hsu,  
 T.-C. Jagau,  Yousung Jung,  A. Klamt,  Jing Kong,  D. S. Lambrecht,  
 Xiangyuan Li,  WanZhen Liang,  N. J. Mayhall,  C. W. McCurdy,  J. B. Neaton,  
 T. Neudecker,  C. Ochsenfeld,  J. A. Parkhill,  R. Peverati,  
 V. A. Rassolov,  Haisheng Ren,  Yihan Shao,  L. V. Slipchenko,  
 R. P. Steele,  J. E. Subotnik,  A. J. W. Thom,  A. Tkatchenko,  
 D. G. Truhlar,  T. Van Voorhis,  Fan Wang,  T. A. Wesolowski,  K. B. Whaley,  
 H. L. Woodcock III,  P. M. Zimmerman,  S. Faraji,  P. M. W. Gill,  
 M. Head-Gordon,  J. M. Herbert,  A. I. Krylov

 Contributors to earlier versions of Q-Chem not listed above: 
 R. D. Adamson,  B. Austin,  R. Baer,  J. Baker,  G. J. O. Beran,  
 K. Brandhorst,  S. T. Brown,  E. F. C. Byrd,  Arup K. Chakraborty,  
 G. K. L. Chan,  Chun-Min Chang,  Yunqing Chen,  C.-L. Cheng,  
 Siu Hung Chien,  D. M. Chipman,  D. L. Crittenden,  H. Dachsel,  
 R. J. Doerksen,  A. D. Dutoi,  R. G. Edgar,  J. Fosso-Tande,  
 L. Fusti-Molnar,  D. Ghosh,  A. Ghysels,  A. Golubeva-Zadorozhnaya,  
 J. Gonthier,  M. S. Gordon,  S. R. Gwaltney,  G. Hawkins,  J. E. Herr,  
 A. Heyden,  S. Hirata,  E. G. Hohenstein,  G. Kedziora,  F. J. Keil,  
 C. Kelley,  Jihan Kim,  R. A. King,  R. Z. Khaliullin,  P. P. Korambath,  
 W. Kurlancheek,  A. Laurent,  A. M. Lee,  M. S. Lee,  S. V. Levchenko,  
 Ching Yeh Lin,  D. Liotard,  E. Livshits,  R. C. Lochan,  I. Lotan,  
 L. A. Martinez-Martinez,  P. E. Maslen,  N. Nair,  D. P. O'Neill,  
 D. Neuhauser,  E. Neuscamman,  C. M. Oana,  R. Olivares-Amaya,  R. Olson,  
 T. M. Perrine,  B. Peters,  P. A. Pieniazek,  A. Prociuk,  Y. M. Rhee,  
 J. Ritchie,  M. A. Rohrdanz,  E. Rosta,  N. J. Russ,  H. F. Schaefer III,  
 M. W. Schmidt,  N. E. Schultz,  S. Sharma,  N. Shenvi,  C. D. Sherrill,  
 A. C. Simmonett,  A. Sodt,  T. Stein,  D. Stuck,  K. S. Thanthiriwatte,  
 V. Vanovschi,  L. Vogt,  Tao Wang,  A. Warshel,  M. A. Watson,  
 C. F. Williams,  Q. Wu,  X. Xu,  Jun Yang,  W. Zhang,  Yan Zhao

   Please cite Q-Chem as follows:
  "Software for the frontiers of quantum chemistry:
   An overview of developments in the Q-Chem 5 package"
   J. Chem. Phys. 155, 084801 (2021)
   https://doi.org/10.1063/5.0055522 (open access)

 Q-Chem 6.2.0 for Intel X86 EM64T Linux

 Parts of Q-Chem use Armadillo 9.900.5 (Nocturnal Misbehaviour).
 http://arma.sourceforge.net/

 Q-Chem begins on Fri Jan 31 01:18:20 2025  

 Host: 
0

     Scratch files written to /data/brussel/103/vsc10365/activedata/TDDFTAnthocyanidines/qchem1882060//
 May224 |scratch|qcdevops|jenkins|workspace|build_RNUM -1
 Processing $rem in /apps/brussel/RL8/skylake/software/Q-Chem/6.2.0/config/preferences:
 Processing $rem in /user/brussel/103/vsc10365/.qchemrc:
 Symmetry turned off for PCM/SM12/SMD calculation

 Checking the input file for inconsistencies... 	...done.

--------------------------------------------------------------
User input:
--------------------------------------------------------------
$comment
TDDFT calculation of delphinidin H structure
nprocs=16
mem=64gb
$end

$molecule
1 1
C   -4.7342706    0.9543969    1.7915167
C   -4.7327082   -0.2721935    1.1002272
C   -3.6549804   -0.6241958    0.3249190
C   -2.5376944    0.2536086    0.2153940
C   -2.5972193    1.4693210    0.9297724
C   -3.6679347    1.8409045    1.7181080
C   -1.3936335   -0.0064880   -0.5372000
C   -0.3485761    0.8990591   -0.5945451
C   -0.4443713    2.1083676    0.1144807
O   -1.5544479    2.3258229    0.8349915
C    0.5162272    3.1870124    0.1995414
C    1.5683217    3.3165694   -0.7261640
C    2.4391574    4.3845900   -0.6314472
C    2.2980335    5.3334709    0.3845957
C    1.2591593    5.1986788    1.3126457
C    0.3724464    4.1462418    1.2195514
O   -5.7875273    1.3143331    2.5604093
H   -5.5842638   -0.9366178    1.1851975
O   -3.5804764   -1.7868288   -0.3617979
H   -3.6764605    2.7808817    2.2498448
H   -1.3054937   -0.9376860   -1.0833565
O    0.7813179    0.6396327   -1.2995817
H    1.6976205    2.6114270   -1.5304984
O    3.4788427    4.5972243   -1.4973383
O    3.1345065    6.3930134    0.5181901
O    1.1104818    6.1090867    2.3238088
H   -0.4185258    4.0693160    1.9500523
H   -6.4753818    0.6319614    2.5419766
H   -4.3791467   -2.3168620   -0.2193653
H    0.7203551   -0.2343113   -1.7133638
H    3.8075154    6.3783391   -0.1800558
H    3.5026792    3.9027446   -2.1709836
H    1.8090176    6.7781494    2.2689242
$end

$rem
BASIS  =  def2-ma-TZVP
MEM_STATIC  =  2000
MEM_TOTAL  =  64000
METHOD  =  CAM-B3LYP
SOLVENT_METHOD = pcm
SYMMETRY_IGNORE  =  1
CIS_N_ROOTS = 7
CIS_SINGLETS = true
CIS_TRIPLETS = true
CISTR_PRINT = true
RPA = true
PRINT_ORBITALS = true
SCF_PRINT = 1
SCF_FINAL_PRINT = 2
PRINT_GENERAL_BASIS = true
CISTR_PRINT = true
PRINT_RADII_GYRE = true
MULTIPOLE_ORDER = 5
CIS_AMPL_PRINT = 5
CIS_AMPL_ANAL = true
STATE_ANALYSIS = true
$end

$pcm
Theory   CPCM
Method   SWIG
Solver   Inversion
Radii    Bondi
$end

$solvent
Dielectric         78.39
OpticalDielectric  1.777849
$end


--------------------------------------------------------------
 ----------------------------------------------------------------
             Standard Nuclear Orientation (Angstroms)
    I     Atom           X                Y                Z
 ----------------------------------------------------------------
    1      C      -4.7342706000     0.9543969000     1.7915167000
    2      C      -4.7327082000    -0.2721935000     1.1002272000
    3      C      -3.6549804000    -0.6241958000     0.3249190000
    4      C      -2.5376944000     0.2536086000     0.2153940000
    5      C      -2.5972193000     1.4693210000     0.9297724000
    6      C      -3.6679347000     1.8409045000     1.7181080000
    7      C      -1.3936335000    -0.0064880000    -0.5372000000
    8      C      -0.3485761000     0.8990591000    -0.5945451000
    9      C      -0.4443713000     2.1083676000     0.1144807000
   10      O      -1.5544479000     2.3258229000     0.8349915000
   11      C       0.5162272000     3.1870124000     0.1995414000
   12      C       1.5683217000     3.3165694000    -0.7261640000
   13      C       2.4391574000     4.3845900000    -0.6314472000
   14      C       2.2980335000     5.3334709000     0.3845957000
   15      C       1.2591593000     5.1986788000     1.3126457000
   16      C       0.3724464000     4.1462418000     1.2195514000
   17      O      -5.7875273000     1.3143331000     2.5604093000
   18      H      -5.5842638000    -0.9366178000     1.1851975000
   19      O      -3.5804764000    -1.7868288000    -0.3617979000
   20      H      -3.6764605000     2.7808817000     2.2498448000
   21      H      -1.3054937000    -0.9376860000    -1.0833565000
   22      O       0.7813179000     0.6396327000    -1.2995817000
   23      H       1.6976205000     2.6114270000    -1.5304984000
   24      O       3.4788427000     4.5972243000    -1.4973383000
   25      O       3.1345065000     6.3930134000     0.5181901000
   26      O       1.1104818000     6.1090867000     2.3238088000
   27      H      -0.4185258000     4.0693160000     1.9500523000
   28      H      -6.4753818000     0.6319614000     2.5419766000
   29      H      -4.3791467000    -2.3168620000    -0.2193653000
   30      H       0.7203551000    -0.2343113000    -1.7133638000
   31      H       3.8075154000     6.3783391000    -0.1800558000
   32      H       3.5026792000     3.9027446000    -2.1709836000
   33      H       1.8090176000     6.7781494000     2.2689242000
 ----------------------------------------------------------------
 Nuclear Repulsion Energy =        1724.18024852 hartrees
 There are       78 alpha and       78 beta electrons
 Requested basis set is def2-ma-TZVP
 Basis set in general basis input format:
-----------------------------------------------------------------------
$basis
C    0
S    6    1.000000
   1.35753497E+04    2.22458144E-04 
   2.03523337E+03    1.72327383E-03 
   4.63225624E+02    8.92557153E-03 
   1.31200196E+02    3.57279845E-02 
   4.28530159E+01    1.10762599E-01 
   1.55841858E+01    2.42956276E-01 
S    2    1.000000
   6.20671385E+00    4.14402634E-01 
   2.57648965E+00    2.37449687E-01 
S    1    1.000000
   5.76963394E-01    1.00000000E+00 
S    1    1.000000
   2.29728314E-01    1.00000000E+00 
S    1    1.000000
   9.51644400E-02    1.00000000E+00 
S    1    1.000000
   4.84754014E-02    1.00000000E+00 
P    4    1.000000
   3.46972322E+01    5.33336578E-03 
   7.95826228E+00    3.58641091E-02 
   2.37808269E+00    1.42158733E-01 
   8.14332082E-01    3.42704718E-01 
P    1    1.000000
   2.88875473E-01    4.64458224E-01 
P    1    1.000000
   1.00568237E-01    2.49557899E-01 
D    1    1.000000
   1.09700000E+00    1.00000000E+00 
D    1    1.000000
   3.18000000E-01    1.00000000E+00 
F    1    1.000000
   7.61000000E-01    1.00000000E+00 
****
C    0
S    6    1.000000
   1.35753497E+04    2.22458144E-04 
   2.03523337E+03    1.72327383E-03 
   4.63225624E+02    8.92557153E-03 
   1.31200196E+02    3.57279845E-02 
   4.28530159E+01    1.10762599E-01 
   1.55841858E+01    2.42956276E-01 
S    2    1.000000
   6.20671385E+00    4.14402634E-01 
   2.57648965E+00    2.37449687E-01 
S    1    1.000000
   5.76963394E-01    1.00000000E+00 
S    1    1.000000
   2.29728314E-01    1.00000000E+00 
S    1    1.000000
   9.51644400E-02    1.00000000E+00 
S    1    1.000000
   4.84754014E-02    1.00000000E+00 
P    4    1.000000
   3.46972322E+01    5.33336578E-03 
   7.95826228E+00    3.58641091E-02 
   2.37808269E+00    1.42158733E-01 
   8.14332082E-01    3.42704718E-01 
P    1    1.000000
   2.88875473E-01    4.64458224E-01 
P    1    1.000000
   1.00568237E-01    2.49557899E-01 
D    1    1.000000
   1.09700000E+00    1.00000000E+00 
D    1    1.000000
   3.18000000E-01    1.00000000E+00 
F    1    1.000000
   7.61000000E-01    1.00000000E+00 
****
C    0
S    6    1.000000
   1.35753497E+04    2.22458144E-04 
   2.03523337E+03    1.72327383E-03 
   4.63225624E+02    8.92557153E-03 
   1.31200196E+02    3.57279845E-02 
   4.28530159E+01    1.10762599E-01 
   1.55841858E+01    2.42956276E-01 
S    2    1.000000
   6.20671385E+00    4.14402634E-01 
   2.57648965E+00    2.37449687E-01 
S    1    1.000000
   5.76963394E-01    1.00000000E+00 
S    1    1.000000
   2.29728314E-01    1.00000000E+00 
S    1    1.000000
   9.51644400E-02    1.00000000E+00 
S    1    1.000000
   4.84754014E-02    1.00000000E+00 
P    4    1.000000
   3.46972322E+01    5.33336578E-03 
   7.95826228E+00    3.58641091E-02 
   2.37808269E+00    1.42158733E-01 
   8.14332082E-01    3.42704718E-01 
P    1    1.000000
   2.88875473E-01    4.64458224E-01 
P    1    1.000000
   1.00568237E-01    2.49557899E-01 
D    1    1.000000
   1.09700000E+00    1.00000000E+00 
D    1    1.000000
   3.18000000E-01    1.00000000E+00 
F    1    1.000000
   7.61000000E-01    1.00000000E+00 
****
C    0
S    6    1.000000
   1.35753497E+04    2.22458144E-04 
   2.03523337E+03    1.72327383E-03 
   4.63225624E+02    8.92557153E-03 
   1.31200196E+02    3.57279845E-02 
   4.28530159E+01    1.10762599E-01 
   1.55841858E+01    2.42956276E-01 
S    2    1.000000
   6.20671385E+00    4.14402634E-01 
   2.57648965E+00    2.37449687E-01 
S    1    1.000000
   5.76963394E-01    1.00000000E+00 
S    1    1.000000
   2.29728314E-01    1.00000000E+00 
S    1    1.000000
   9.51644400E-02    1.00000000E+00 
S    1    1.000000
   4.84754014E-02    1.00000000E+00 
P    4    1.000000
   3.46972322E+01    5.33336578E-03 
   7.95826228E+00    3.58641091E-02 
   2.37808269E+00    1.42158733E-01 
   8.14332082E-01    3.42704718E-01 
P    1    1.000000
   2.88875473E-01    4.64458224E-01 
P    1    1.000000
   1.00568237E-01    2.49557899E-01 
D    1    1.000000
   1.09700000E+00    1.00000000E+00 
D    1    1.000000
   3.18000000E-01    1.00000000E+00 
F    1    1.000000
   7.61000000E-01    1.00000000E+00 
****
C    0
S    6    1.000000
   1.35753497E+04    2.22458144E-04 
   2.03523337E+03    1.72327383E-03 
   4.63225624E+02    8.92557153E-03 
   1.31200196E+02    3.57279845E-02 
   4.28530159E+01    1.10762599E-01 
   1.55841858E+01    2.42956276E-01 
S    2    1.000000
   6.20671385E+00    4.14402634E-01 
   2.57648965E+00    2.37449687E-01 
S    1    1.000000
   5.76963394E-01    1.00000000E+00 
S    1    1.000000
   2.29728314E-01    1.00000000E+00 
S    1    1.000000
   9.51644400E-02    1.00000000E+00 
S    1    1.000000
   4.84754014E-02    1.00000000E+00 
P    4    1.000000
   3.46972322E+01    5.33336578E-03 
   7.95826228E+00    3.58641091E-02 
   2.37808269E+00    1.42158733E-01 
   8.14332082E-01    3.42704718E-01 
P    1    1.000000
   2.88875473E-01    4.64458224E-01 
P    1    1.000000
   1.00568237E-01    2.49557899E-01 
D    1    1.000000
   1.09700000E+00    1.00000000E+00 
D    1    1.000000
   3.18000000E-01    1.00000000E+00 
F    1    1.000000
   7.61000000E-01    1.00000000E+00 
****
C    0
S    6    1.000000
   1.35753497E+04    2.22458144E-04 
   2.03523337E+03    1.72327383E-03 
   4.63225624E+02    8.92557153E-03 
   1.31200196E+02    3.57279845E-02 
   4.28530159E+01    1.10762599E-01 
   1.55841858E+01    2.42956276E-01 
S    2    1.000000
   6.20671385E+00    4.14402634E-01 
   2.57648965E+00    2.37449687E-01 
S    1    1.000000
   5.76963394E-01    1.00000000E+00 
S    1    1.000000
   2.29728314E-01    1.00000000E+00 
S    1    1.000000
   9.51644400E-02    1.00000000E+00 
S    1    1.000000
   4.84754014E-02    1.00000000E+00 
P    4    1.000000
   3.46972322E+01    5.33336578E-03 
   7.95826228E+00    3.58641091E-02 
   2.37808269E+00    1.42158733E-01 
   8.14332082E-01    3.42704718E-01 
P    1    1.000000
   2.88875473E-01    4.64458224E-01 
P    1    1.000000
   1.00568237E-01    2.49557899E-01 
D    1    1.000000
   1.09700000E+00    1.00000000E+00 
D    1    1.000000
   3.18000000E-01    1.00000000E+00 
F    1    1.000000
   7.61000000E-01    1.00000000E+00 
****
C    0
S    6    1.000000
   1.35753497E+04    2.22458144E-04 
   2.03523337E+03    1.72327383E-03 
   4.63225624E+02    8.92557153E-03 
   1.31200196E+02    3.57279845E-02 
   4.28530159E+01    1.10762599E-01 
   1.55841858E+01    2.42956276E-01 
S    2    1.000000
   6.20671385E+00    4.14402634E-01 
   2.57648965E+00    2.37449687E-01 
S    1    1.000000
   5.76963394E-01    1.00000000E+00 
S    1    1.000000
   2.29728314E-01    1.00000000E+00 
S    1    1.000000
   9.51644400E-02    1.00000000E+00 
S    1    1.000000
   4.84754014E-02    1.00000000E+00 
P    4    1.000000
   3.46972322E+01    5.33336578E-03 
   7.95826228E+00    3.58641091E-02 
   2.37808269E+00    1.42158733E-01 
   8.14332082E-01    3.42704718E-01 
P    1    1.000000
   2.88875473E-01    4.64458224E-01 
P    1    1.000000
   1.00568237E-01    2.49557899E-01 
D    1    1.000000
   1.09700000E+00    1.00000000E+00 
D    1    1.000000
   3.18000000E-01    1.00000000E+00 
F    1    1.000000
   7.61000000E-01    1.00000000E+00 
****
C    0
S    6    1.000000
   1.35753497E+04    2.22458144E-04 
   2.03523337E+03    1.72327383E-03 
   4.63225624E+02    8.92557153E-03 
   1.31200196E+02    3.57279845E-02 
   4.28530159E+01    1.10762599E-01 
   1.55841858E+01    2.42956276E-01 
S    2    1.000000
   6.20671385E+00    4.14402634E-01 
   2.57648965E+00    2.37449687E-01 
S    1    1.000000
   5.76963394E-01    1.00000000E+00 
S    1    1.000000
   2.29728314E-01    1.00000000E+00 
S    1    1.000000
   9.51644400E-02    1.00000000E+00 
S    1    1.000000
   4.84754014E-02    1.00000000E+00 
P    4    1.000000
   3.46972322E+01    5.33336578E-03 
   7.95826228E+00    3.58641091E-02 
   2.37808269E+00    1.42158733E-01 
   8.14332082E-01    3.42704718E-01 
P    1    1.000000
   2.88875473E-01    4.64458224E-01 
P    1    1.000000
   1.00568237E-01    2.49557899E-01 
D    1    1.000000
   1.09700000E+00    1.00000000E+00 
D    1    1.000000
   3.18000000E-01    1.00000000E+00 
F    1    1.000000
   7.61000000E-01    1.00000000E+00 
****
C    0
S    6    1.000000
   1.35753497E+04    2.22458144E-04 
   2.03523337E+03    1.72327383E-03 
   4.63225624E+02    8.92557153E-03 
   1.31200196E+02    3.57279845E-02 
   4.28530159E+01    1.10762599E-01 
   1.55841858E+01    2.42956276E-01 
S    2    1.000000
   6.20671385E+00    4.14402634E-01 
   2.57648965E+00    2.37449687E-01 
S    1    1.000000
   5.76963394E-01    1.00000000E+00 
S    1    1.000000
   2.29728314E-01    1.00000000E+00 
S    1    1.000000
   9.51644400E-02    1.00000000E+00 
S    1    1.000000
   4.84754014E-02    1.00000000E+00 
P    4    1.000000
   3.46972322E+01    5.33336578E-03 
   7.95826228E+00    3.58641091E-02 
   2.37808269E+00    1.42158733E-01 
   8.14332082E-01    3.42704718E-01 
P    1    1.000000
   2.88875473E-01    4.64458224E-01 
P    1    1.000000
   1.00568237E-01    2.49557899E-01 
D    1    1.000000
   1.09700000E+00    1.00000000E+00 
D    1    1.000000
   3.18000000E-01    1.00000000E+00 
F    1    1.000000
   7.61000000E-01    1.00000000E+00 
****
O    0
S    6    1.000000
   2.70323826E+04    2.17263025E-04 
   4.05238714E+03    1.68386622E-03 
   9.22327227E+02    8.73956163E-03 
   2.61240710E+02    3.52399688E-02 
   8.53546414E+01    1.11535191E-01 
   3.10350352E+01    2.55889540E-01 
S    2    1.000000
   1.22608607E+01    3.97687309E-01 
   4.99870760E+00    2.46278494E-01 
S    1    1.000000
   1.17031082E+00    1.00000000E+00 
S    1    1.000000
   4.64747410E-01    1.00000000E+00 
S    1    1.000000
   1.85045364E-01    1.00000000E+00 
S    1    1.000000
   7.02880263E-02    1.00000000E+00 
P    4    1.000000
   6.32749548E+01    6.06851034E-03 
   1.46270494E+01    4.19125758E-02 
   4.45012235E+00    1.61538411E-01 
   1.52757996E+00    3.57069513E-01 
P    1    1.000000
   5.29351179E-01    4.47942075E-01 
P    1    1.000000
   1.74784213E-01    2.44460697E-01 
P    1    1.000000
   5.11127457E-02    1.00000000E+00 
D    1    1.000000
   2.31400000E+00    1.00000000E+00 
D    1    1.000000
   6.45000000E-01    1.00000000E+00 
F    1    1.000000
   1.42800000E+00    1.00000000E+00 
****
C    0
S    6    1.000000
   1.35753497E+04    2.22458144E-04 
   2.03523337E+03    1.72327383E-03 
   4.63225624E+02    8.92557153E-03 
   1.31200196E+02    3.57279845E-02 
   4.28530159E+01    1.10762599E-01 
   1.55841858E+01    2.42956276E-01 
S    2    1.000000
   6.20671385E+00    4.14402634E-01 
   2.57648965E+00    2.37449687E-01 
S    1    1.000000
   5.76963394E-01    1.00000000E+00 
S    1    1.000000
   2.29728314E-01    1.00000000E+00 
S    1    1.000000
   9.51644400E-02    1.00000000E+00 
S    1    1.000000
   4.84754014E-02    1.00000000E+00 
P    4    1.000000
   3.46972322E+01    5.33336578E-03 
   7.95826228E+00    3.58641091E-02 
   2.37808269E+00    1.42158733E-01 
   8.14332082E-01    3.42704718E-01 
P    1    1.000000
   2.88875473E-01    4.64458224E-01 
P    1    1.000000
   1.00568237E-01    2.49557899E-01 
D    1    1.000000
   1.09700000E+00    1.00000000E+00 
D    1    1.000000
   3.18000000E-01    1.00000000E+00 
F    1    1.000000
   7.61000000E-01    1.00000000E+00 
****
C    0
S    6    1.000000
   1.35753497E+04    2.22458144E-04 
   2.03523337E+03    1.72327383E-03 
   4.63225624E+02    8.92557153E-03 
   1.31200196E+02    3.57279845E-02 
   4.28530159E+01    1.10762599E-01 
   1.55841858E+01    2.42956276E-01 
S    2    1.000000
   6.20671385E+00    4.14402634E-01 
   2.57648965E+00    2.37449687E-01 
S    1    1.000000
   5.76963394E-01    1.00000000E+00 
S    1    1.000000
   2.29728314E-01    1.00000000E+00 
S    1    1.000000
   9.51644400E-02    1.00000000E+00 
S    1    1.000000
   4.84754014E-02    1.00000000E+00 
P    4    1.000000
   3.46972322E+01    5.33336578E-03 
   7.95826228E+00    3.58641091E-02 
   2.37808269E+00    1.42158733E-01 
   8.14332082E-01    3.42704718E-01 
P    1    1.000000
   2.88875473E-01    4.64458224E-01 
P    1    1.000000
   1.00568237E-01    2.49557899E-01 
D    1    1.000000
   1.09700000E+00    1.00000000E+00 
D    1    1.000000
   3.18000000E-01    1.00000000E+00 
F    1    1.000000
   7.61000000E-01    1.00000000E+00 
****
C    0
S    6    1.000000
   1.35753497E+04    2.22458144E-04 
   2.03523337E+03    1.72327383E-03 
   4.63225624E+02    8.92557153E-03 
   1.31200196E+02    3.57279845E-02 
   4.28530159E+01    1.10762599E-01 
   1.55841858E+01    2.42956276E-01 
S    2    1.000000
   6.20671385E+00    4.14402634E-01 
   2.57648965E+00    2.37449687E-01 
S    1    1.000000
   5.76963394E-01    1.00000000E+00 
S    1    1.000000
   2.29728314E-01    1.00000000E+00 
S    1    1.000000
   9.51644400E-02    1.00000000E+00 
S    1    1.000000
   4.84754014E-02    1.00000000E+00 
P    4    1.000000
   3.46972322E+01    5.33336578E-03 
   7.95826228E+00    3.58641091E-02 
   2.37808269E+00    1.42158733E-01 
   8.14332082E-01    3.42704718E-01 
P    1    1.000000
   2.88875473E-01    4.64458224E-01 
P    1    1.000000
   1.00568237E-01    2.49557899E-01 
D    1    1.000000
   1.09700000E+00    1.00000000E+00 
D    1    1.000000
   3.18000000E-01    1.00000000E+00 
F    1    1.000000
   7.61000000E-01    1.00000000E+00 
****
C    0
S    6    1.000000
   1.35753497E+04    2.22458144E-04 
   2.03523337E+03    1.72327383E-03 
   4.63225624E+02    8.92557153E-03 
   1.31200196E+02    3.57279845E-02 
   4.28530159E+01    1.10762599E-01 
   1.55841858E+01    2.42956276E-01 
S    2    1.000000
   6.20671385E+00    4.14402634E-01 
   2.57648965E+00    2.37449687E-01 
S    1    1.000000
   5.76963394E-01    1.00000000E+00 
S    1    1.000000
   2.29728314E-01    1.00000000E+00 
S    1    1.000000
   9.51644400E-02    1.00000000E+00 
S    1    1.000000
   4.84754014E-02    1.00000000E+00 
P    4    1.000000
   3.46972322E+01    5.33336578E-03 
   7.95826228E+00    3.58641091E-02 
   2.37808269E+00    1.42158733E-01 
   8.14332082E-01    3.42704718E-01 
P    1    1.000000
   2.88875473E-01    4.64458224E-01 
P    1    1.000000
   1.00568237E-01    2.49557899E-01 
D    1    1.000000
   1.09700000E+00    1.00000000E+00 
D    1    1.000000
   3.18000000E-01    1.00000000E+00 
F    1    1.000000
   7.61000000E-01    1.00000000E+00 
****
C    0
S    6    1.000000
   1.35753497E+04    2.22458144E-04 
   2.03523337E+03    1.72327383E-03 
   4.63225624E+02    8.92557153E-03 
   1.31200196E+02    3.57279845E-02 
   4.28530159E+01    1.10762599E-01 
   1.55841858E+01    2.42956276E-01 
S    2    1.000000
   6.20671385E+00    4.14402634E-01 
   2.57648965E+00    2.37449687E-01 
S    1    1.000000
   5.76963394E-01    1.00000000E+00 
S    1    1.000000
   2.29728314E-01    1.00000000E+00 
S    1    1.000000
   9.51644400E-02    1.00000000E+00 
S    1    1.000000
   4.84754014E-02    1.00000000E+00 
P    4    1.000000
   3.46972322E+01    5.33336578E-03 
   7.95826228E+00    3.58641091E-02 
   2.37808269E+00    1.42158733E-01 
   8.14332082E-01    3.42704718E-01 
P    1    1.000000
   2.88875473E-01    4.64458224E-01 
P    1    1.000000
   1.00568237E-01    2.49557899E-01 
D    1    1.000000
   1.09700000E+00    1.00000000E+00 
D    1    1.000000
   3.18000000E-01    1.00000000E+00 
F    1    1.000000
   7.61000000E-01    1.00000000E+00 
****
C    0
S    6    1.000000
   1.35753497E+04    2.22458144E-04 
   2.03523337E+03    1.72327383E-03 
   4.63225624E+02    8.92557153E-03 
   1.31200196E+02    3.57279845E-02 
   4.28530159E+01    1.10762599E-01 
   1.55841858E+01    2.42956276E-01 
S    2    1.000000
   6.20671385E+00    4.14402634E-01 
   2.57648965E+00    2.37449687E-01 
S    1    1.000000
   5.76963394E-01    1.00000000E+00 
S    1    1.000000
   2.29728314E-01    1.00000000E+00 
S    1    1.000000
   9.51644400E-02    1.00000000E+00 
S    1    1.000000
   4.84754014E-02    1.00000000E+00 
P    4    1.000000
   3.46972322E+01    5.33336578E-03 
   7.95826228E+00    3.58641091E-02 
   2.37808269E+00    1.42158733E-01 
   8.14332082E-01    3.42704718E-01 
P    1    1.000000
   2.88875473E-01    4.64458224E-01 
P    1    1.000000
   1.00568237E-01    2.49557899E-01 
D    1    1.000000
   1.09700000E+00    1.00000000E+00 
D    1    1.000000
   3.18000000E-01    1.00000000E+00 
F    1    1.000000
   7.61000000E-01    1.00000000E+00 
****
O    0
S    6    1.000000
   2.70323826E+04    2.17263025E-04 
   4.05238714E+03    1.68386622E-03 
   9.22327227E+02    8.73956163E-03 
   2.61240710E+02    3.52399688E-02 
   8.53546414E+01    1.11535191E-01 
   3.10350352E+01    2.55889540E-01 
S    2    1.000000
   1.22608607E+01    3.97687309E-01 
   4.99870760E+00    2.46278494E-01 
S    1    1.000000
   1.17031082E+00    1.00000000E+00 
S    1    1.000000
   4.64747410E-01    1.00000000E+00 
S    1    1.000000
   1.85045364E-01    1.00000000E+00 
S    1    1.000000
   7.02880263E-02    1.00000000E+00 
P    4    1.000000
   6.32749548E+01    6.06851034E-03 
   1.46270494E+01    4.19125758E-02 
   4.45012235E+00    1.61538411E-01 
   1.52757996E+00    3.57069513E-01 
P    1    1.000000
   5.29351179E-01    4.47942075E-01 
P    1    1.000000
   1.74784213E-01    2.44460697E-01 
P    1    1.000000
   5.11127457E-02    1.00000000E+00 
D    1    1.000000
   2.31400000E+00    1.00000000E+00 
D    1    1.000000
   6.45000000E-01    1.00000000E+00 
F    1    1.000000
   1.42800000E+00    1.00000000E+00 
****
H    0
S    3    1.000000
   3.40613410E+01    6.02519780E-03 
   5.12357460E+00    4.50210940E-02 
   1.16466260E+00    2.01897260E-01 
S    1    1.000000
   3.27230410E-01    1.00000000E+00 
S    1    1.000000
   1.03072410E-01    1.00000000E+00 
P    1    1.000000
   8.00000000E-01    1.00000000E+00 
****
O    0
S    6    1.000000
   2.70323826E+04    2.17263025E-04 
   4.05238714E+03    1.68386622E-03 
   9.22327227E+02    8.73956163E-03 
   2.61240710E+02    3.52399688E-02 
   8.53546414E+01    1.11535191E-01 
   3.10350352E+01    2.55889540E-01 
S    2    1.000000
   1.22608607E+01    3.97687309E-01 
   4.99870760E+00    2.46278494E-01 
S    1    1.000000
   1.17031082E+00    1.00000000E+00 
S    1    1.000000
   4.64747410E-01    1.00000000E+00 
S    1    1.000000
   1.85045364E-01    1.00000000E+00 
S    1    1.000000
   7.02880263E-02    1.00000000E+00 
P    4    1.000000
   6.32749548E+01    6.06851034E-03 
   1.46270494E+01    4.19125758E-02 
   4.45012235E+00    1.61538411E-01 
   1.52757996E+00    3.57069513E-01 
P    1    1.000000
   5.29351179E-01    4.47942075E-01 
P    1    1.000000
   1.74784213E-01    2.44460697E-01 
P    1    1.000000
   5.11127457E-02    1.00000000E+00 
D    1    1.000000
   2.31400000E+00    1.00000000E+00 
D    1    1.000000
   6.45000000E-01    1.00000000E+00 
F    1    1.000000
   1.42800000E+00    1.00000000E+00 
****
H    0
S    3    1.000000
   3.40613410E+01    6.02519780E-03 
   5.12357460E+00    4.50210940E-02 
   1.16466260E+00    2.01897260E-01 
S    1    1.000000
   3.27230410E-01    1.00000000E+00 
S    1    1.000000
   1.03072410E-01    1.00000000E+00 
P    1    1.000000
   8.00000000E-01    1.00000000E+00 
****
H    0
S    3    1.000000
   3.40613410E+01    6.02519780E-03 
   5.12357460E+00    4.50210940E-02 
   1.16466260E+00    2.01897260E-01 
S    1    1.000000
   3.27230410E-01    1.00000000E+00 
S    1    1.000000
   1.03072410E-01    1.00000000E+00 
P    1    1.000000
   8.00000000E-01    1.00000000E+00 
****
O    0
S    6    1.000000
   2.70323826E+04    2.17263025E-04 
   4.05238714E+03    1.68386622E-03 
   9.22327227E+02    8.73956163E-03 
   2.61240710E+02    3.52399688E-02 
   8.53546414E+01    1.11535191E-01 
   3.10350352E+01    2.55889540E-01 
S    2    1.000000
   1.22608607E+01    3.97687309E-01 
   4.99870760E+00    2.46278494E-01 
S    1    1.000000
   1.17031082E+00    1.00000000E+00 
S    1    1.000000
   4.64747410E-01    1.00000000E+00 
S    1    1.000000
   1.85045364E-01    1.00000000E+00 
S    1    1.000000
   7.02880263E-02    1.00000000E+00 
P    4    1.000000
   6.32749548E+01    6.06851034E-03 
   1.46270494E+01    4.19125758E-02 
   4.45012235E+00    1.61538411E-01 
   1.52757996E+00    3.57069513E-01 
P    1    1.000000
   5.29351179E-01    4.47942075E-01 
P    1    1.000000
   1.74784213E-01    2.44460697E-01 
P    1    1.000000
   5.11127457E-02    1.00000000E+00 
D    1    1.000000
   2.31400000E+00    1.00000000E+00 
D    1    1.000000
   6.45000000E-01    1.00000000E+00 
F    1    1.000000
   1.42800000E+00    1.00000000E+00 
****
H    0
S    3    1.000000
   3.40613410E+01    6.02519780E-03 
   5.12357460E+00    4.50210940E-02 
   1.16466260E+00    2.01897260E-01 
S    1    1.000000
   3.27230410E-01    1.00000000E+00 
S    1    1.000000
   1.03072410E-01    1.00000000E+00 
P    1    1.000000
   8.00000000E-01    1.00000000E+00 
****
O    0
S    6    1.000000
   2.70323826E+04    2.17263025E-04 
   4.05238714E+03    1.68386622E-03 
   9.22327227E+02    8.73956163E-03 
   2.61240710E+02    3.52399688E-02 
   8.53546414E+01    1.11535191E-01 
   3.10350352E+01    2.55889540E-01 
S    2    1.000000
   1.22608607E+01    3.97687309E-01 
   4.99870760E+00    2.46278494E-01 
S    1    1.000000
   1.17031082E+00    1.00000000E+00 
S    1    1.000000
   4.64747410E-01    1.00000000E+00 
S    1    1.000000
   1.85045364E-01    1.00000000E+00 
S    1    1.000000
   7.02880263E-02    1.00000000E+00 
P    4    1.000000
   6.32749548E+01    6.06851034E-03 
   1.46270494E+01    4.19125758E-02 
   4.45012235E+00    1.61538411E-01 
   1.52757996E+00    3.57069513E-01 
P    1    1.000000
   5.29351179E-01    4.47942075E-01 
P    1    1.000000
   1.74784213E-01    2.44460697E-01 
P    1    1.000000
   5.11127457E-02    1.00000000E+00 
D    1    1.000000
   2.31400000E+00    1.00000000E+00 
D    1    1.000000
   6.45000000E-01    1.00000000E+00 
F    1    1.000000
   1.42800000E+00    1.00000000E+00 
****
O    0
S    6    1.000000
   2.70323826E+04    2.17263025E-04 
   4.05238714E+03    1.68386622E-03 
   9.22327227E+02    8.73956163E-03 
   2.61240710E+02    3.52399688E-02 
   8.53546414E+01    1.11535191E-01 
   3.10350352E+01    2.55889540E-01 
S    2    1.000000
   1.22608607E+01    3.97687309E-01 
   4.99870760E+00    2.46278494E-01 
S    1    1.000000
   1.17031082E+00    1.00000000E+00 
S    1    1.000000
   4.64747410E-01    1.00000000E+00 
S    1    1.000000
   1.85045364E-01    1.00000000E+00 
S    1    1.000000
   7.02880263E-02    1.00000000E+00 
P    4    1.000000
   6.32749548E+01    6.06851034E-03 
   1.46270494E+01    4.19125758E-02 
   4.45012235E+00    1.61538411E-01 
   1.52757996E+00    3.57069513E-01 
P    1    1.000000
   5.29351179E-01    4.47942075E-01 
P    1    1.000000
   1.74784213E-01    2.44460697E-01 
P    1    1.000000
   5.11127457E-02    1.00000000E+00 
D    1    1.000000
   2.31400000E+00    1.00000000E+00 
D    1    1.000000
   6.45000000E-01    1.00000000E+00 
F    1    1.000000
   1.42800000E+00    1.00000000E+00 
****
O    0
S    6    1.000000
   2.70323826E+04    2.17263025E-04 
   4.05238714E+03    1.68386622E-03 
   9.22327227E+02    8.73956163E-03 
   2.61240710E+02    3.52399688E-02 
   8.53546414E+01    1.11535191E-01 
   3.10350352E+01    2.55889540E-01 
S    2    1.000000
   1.22608607E+01    3.97687309E-01 
   4.99870760E+00    2.46278494E-01 
S    1    1.000000
   1.17031082E+00    1.00000000E+00 
S    1    1.000000
   4.64747410E-01    1.00000000E+00 
S    1    1.000000
   1.85045364E-01    1.00000000E+00 
S    1    1.000000
   7.02880263E-02    1.00000000E+00 
P    4    1.000000
   6.32749548E+01    6.06851034E-03 
   1.46270494E+01    4.19125758E-02 
   4.45012235E+00    1.61538411E-01 
   1.52757996E+00    3.57069513E-01 
P    1    1.000000
   5.29351179E-01    4.47942075E-01 
P    1    1.000000
   1.74784213E-01    2.44460697E-01 
P    1    1.000000
   5.11127457E-02    1.00000000E+00 
D    1    1.000000
   2.31400000E+00    1.00000000E+00 
D    1    1.000000
   6.45000000E-01    1.00000000E+00 
F    1    1.000000
   1.42800000E+00    1.00000000E+00 
****
H    0
S    3    1.000000
   3.40613410E+01    6.02519780E-03 
   5.12357460E+00    4.50210940E-02 
   1.16466260E+00    2.01897260E-01 
S    1    1.000000
   3.27230410E-01    1.00000000E+00 
S    1    1.000000
   1.03072410E-01    1.00000000E+00 
P    1    1.000000
   8.00000000E-01    1.00000000E+00 
****
H    0
S    3    1.000000
   3.40613410E+01    6.02519780E-03 
   5.12357460E+00    4.50210940E-02 
   1.16466260E+00    2.01897260E-01 
S    1    1.000000
   3.27230410E-01    1.00000000E+00 
S    1    1.000000
   1.03072410E-01    1.00000000E+00 
P    1    1.000000
   8.00000000E-01    1.00000000E+00 
****
H    0
S    3    1.000000
   3.40613410E+01    6.02519780E-03 
   5.12357460E+00    4.50210940E-02 
   1.16466260E+00    2.01897260E-01 
S    1    1.000000
   3.27230410E-01    1.00000000E+00 
S    1    1.000000
   1.03072410E-01    1.00000000E+00 
P    1    1.000000
   8.00000000E-01    1.00000000E+00 
****
H    0
S    3    1.000000
   3.40613410E+01    6.02519780E-03 
   5.12357460E+00    4.50210940E-02 
   1.16466260E+00    2.01897260E-01 
S    1    1.000000
   3.27230410E-01    1.00000000E+00 
S    1    1.000000
   1.03072410E-01    1.00000000E+00 
P    1    1.000000
   8.00000000E-01    1.00000000E+00 
****
H    0
S    3    1.000000
   3.40613410E+01    6.02519780E-03 
   5.12357460E+00    4.50210940E-02 
   1.16466260E+00    2.01897260E-01 
S    1    1.000000
   3.27230410E-01    1.00000000E+00 
S    1    1.000000
   1.03072410E-01    1.00000000E+00 
P    1    1.000000
   8.00000000E-01    1.00000000E+00 
****
H    0
S    3    1.000000
   3.40613410E+01    6.02519780E-03 
   5.12357460E+00    4.50210940E-02 
   1.16466260E+00    2.01897260E-01 
S    1    1.000000
   3.27230410E-01    1.00000000E+00 
S    1    1.000000
   1.03072410E-01    1.00000000E+00 
P    1    1.000000
   8.00000000E-01    1.00000000E+00 
****
H    0
S    3    1.000000
   3.40613410E+01    6.02519780E-03 
   5.12357460E+00    4.50210940E-02 
   1.16466260E+00    2.01897260E-01 
S    1    1.000000
   3.27230410E-01    1.00000000E+00 
S    1    1.000000
   1.03072410E-01    1.00000000E+00 
P    1    1.000000
   8.00000000E-01    1.00000000E+00 
****
$end
-----------------------------------------------------------------------
 There are 315 shells and 791 basis functions

 Total QAlloc Memory Limit  64000 MB
 Mega-Array Size      1956 MB
 MEM_STATIC part      2000 MB

 User-specified dielectric constants (eps_0 = 78.39, eps_inf = 1.78)
 Using C-PCM dielectric factor f(eps) = (eps-1)/eps = 0.987243
 Static dielectric constant eps = 78.39
 Discretize the solute cavity surface with Lebedev spheres
	Using 110 Lebedev grid points for each H atom
	Using 194 Lebedev grid points for other atoms
	Atomic van der Waals radii (Bondi set) will be scaled by 1.20
 Using smooth SwiG surface discretization
 Remove points where switching function is < 1.0e-08
 Keep 2257 surface tesserae and discard 3221 interior tesserae
 Molecular Surface Area = 308.323 Angst**2

 A cutoff of  1.0D-12 yielded  35082 shell pairs
 There are    208506 function pairs (    264584 Cartesian)
 Smallest overlap matrix eigenvalue = 4.13E-06

 Scale SEOQF with 1.000000e-02/1.000000e-02/1.000000e-01

 Standard Electronic Orientation quadrupole field applied
 Nucleus-field energy     =    -0.0000000093 hartrees
 Guess from superposition of atomic densities
 Warning:  Energy on first SCF cycle will be non-variational
 SAD guess density has 157.000000 electrons

 -----------------------------------------------------------------------
  General SCF calculation program by
  Eric Jon Sundstrom, Paul Horn, Yuezhi Mao, Dmitri Zuev, Alec White,
  David Stuck, Shaama M.S., Shane Yost, Joonho Lee, David Small,
  Daniel Levine, Susi Lehtola, Hugh Burton, Evgeny Epifanovsky,
  Bang C. Huynh
 -----------------------------------------------------------------------
 Exchange:     0.1900 Hartree-Fock + 0.3500 B88 + 0.4600 muB88 + LR-HF
 Correlation:  0.1900 VWN5 + 0.8100 LYP
 Using SG-1 standard quadrature grid
 using 16 threads for integral computing
 -------------------------------------------------------
 OpenMP Integral computing Module                
 Release: version 1.0, May 2013, Q-Chem Inc. Pittsburgh 
 -------------------------------------------------------
 C-PCM solvent model [f = (eps-1)/eps], solve by matrix inversion
 DFT Correlation          Energy =  -6.42840680702734
 DFT Exchange             Energy = -98.96206330697147
 HF Exchange              Energy = -40.44816984683911
 One-Electron             Energy = -4920.55592422219161
 SCRF wf-dependent energy Energy =   0.00000000000000
 Total Coulomb            Energy = 2230.69553024588458
 Nuclear repulsion Energy = 1724.18024851376163
 A restricted SCF calculation will be
 performed using DIIS
 SCF converges when DIIS error is below 1.0e-08
 DFT Correlation          Energy =  -6.42840680702734
 DFT Exchange             Energy = -98.96206330697147
 HF Exchange              Energy = -40.44816984683911
 One-Electron             Energy = -4920.55592422219161
 SCRF wf-dependent energy Energy =   0.00000000000000
 Total Coulomb            Energy = 2230.69553024588458
 ---------------------------------------
  Cycle       Energy         DIIS error
 ---------------------------------------
 DFT Correlation          Energy =  -6.47304801795823
 DFT Exchange             Energy = -100.74527056321445
 HF Exchange              Energy = -38.92608239468833
 One-Electron             Energy = -4902.64132877832799
 SCRF wf-dependent energy Energy = -17.80342697423725
 Total Coulomb            Energy = 2238.06759465702726
 Nuclear repulsion Energy = 1724.18024851376163
    1   -1111.5187854234      2.09e-02  
 DFT Correlation          Energy =  -6.42244725581438
 DFT Exchange             Energy = -99.21561668333341
 HF Exchange              Energy = -38.50930759423741
 One-Electron             Energy = -4890.60444441047548
 SCRF wf-dependent energy Energy = -16.95777077015327
 Total Coulomb            Energy = 2223.19094434238514
 Nuclear repulsion Energy = 1724.18024851376163
    2   -1104.3413135576      2.07e-03  
 DFT Correlation          Energy =  -6.44648006944378
 DFT Exchange             Energy = -99.99655370729587
 HF Exchange              Energy = -38.73975297720791
 One-Electron             Energy = -4895.04562790124692
 SCRF wf-dependent energy Energy = -17.84416121094091
 Total Coulomb            Energy = 2229.29214220911854
 Nuclear repulsion Energy = 1724.18024851376163
    3   -1104.3383938579      2.23e-03  
 DFT Correlation          Energy =  -6.44660624532734
 DFT Exchange             Energy = -99.97479273996943
 HF Exchange              Energy = -38.73316707646863
 One-Electron             Energy = -4896.12318423676334
 SCRF wf-dependent energy Energy = -17.52208878687088
 Total Coulomb            Energy = 2230.01499737177346
 Nuclear repulsion Energy = 1724.18024851376163
    4   -1104.6001851433      2.87e-04  
 DFT Correlation          Energy =  -6.44654279332144
 DFT Exchange             Energy = -99.98042321812763
 HF Exchange              Energy = -38.73566490212854
 One-Electron             Energy = -4895.90041427659344
 SCRF wf-dependent energy Energy = -17.59609479159462
 Total Coulomb            Energy = 2229.87352064997685
 Nuclear repulsion Energy = 1724.18024851376163
    5   -1104.6045931999      1.10e-04  
 DFT Correlation          Energy =  -6.44631657336855
 DFT Exchange             Energy = -99.97507912296582
 HF Exchange              Energy = -38.73466990265072
 One-Electron             Energy = -4895.79693314017823
 SCRF wf-dependent energy Energy = -17.60170894554699
 Total Coulomb            Energy = 2229.76901316041449
 Nuclear repulsion Energy = 1724.18024851376163
    6   -1104.6053708180      3.30e-05  
 DFT Correlation          Energy =  -6.44637605996123
 DFT Exchange             Energy = -99.97612015404150
 HF Exchange              Energy = -38.73502695176587
 One-Electron             Energy = -4895.82593844277835
 SCRF wf-dependent energy Energy = -17.59989863345163
 Total Coulomb            Energy = 2229.79765797345226
 Nuclear repulsion Energy = 1724.18024851376163
    7   -1104.6054460105      8.85e-06  
 DFT Correlation          Energy =  -6.44639390839184
 DFT Exchange             Energy = -99.97672308376804
 HF Exchange              Energy = -38.73523085525589
 One-Electron             Energy = -4895.83819373082770
 SCRF wf-dependent energy Energy = -17.59785371433418
 Total Coulomb            Energy = 2229.80869132413864
 Nuclear repulsion Energy = 1724.18024851376163
    8   -1104.6054537548      3.55e-06  
 DFT Correlation          Energy =  -6.44638355792224
 DFT Exchange             Energy = -99.97638215245722
 HF Exchange              Energy = -38.73517010412666
 One-Electron             Energy = -4895.83174206208241
 SCRF wf-dependent energy Energy = -17.59875551728464
 Total Coulomb            Energy = 2229.80272888668151
 Nuclear repulsion Energy = 1724.18024851376163
    9   -1104.6054554547      1.51e-06  
 DFT Correlation          Energy =  -6.44638385210228
 DFT Exchange             Energy = -99.97644988376281
 HF Exchange              Energy = -38.73519836528916
 One-Electron             Energy = -4895.83186884966199
 SCRF wf-dependent energy Energy = -17.59874181915598
 Total Coulomb            Energy = 2229.80293815902814
 Nuclear repulsion Energy = 1724.18024851376163
   10   -1104.6054559934      6.09e-07  
 DFT Correlation          Energy =  -6.44638460742730
 DFT Exchange             Energy = -99.97645047236495
 HF Exchange              Energy = -38.73520044185681
 One-Electron             Energy = -4895.83249537868323
 SCRF wf-dependent energy Energy = -17.59859616123276
 Total Coulomb            Energy = 2229.80342241738890
 Nuclear repulsion Energy = 1724.18024851376163
   11   -1104.6054560972      3.72e-07  
 DFT Correlation          Energy =  -6.44638453913088
 DFT Exchange             Energy = -99.97645332994880
 HF Exchange              Energy = -38.73520128716565
 One-Electron             Energy = -4895.83254080975530
 SCRF wf-dependent energy Energy = -17.59854596552577
 Total Coulomb            Energy = 2229.80342128245502
 Nuclear repulsion Energy = 1724.18024851376163
   12   -1104.6054561304      1.02e-07  
 DFT Correlation          Energy =  -6.44638440008477
 DFT Exchange             Energy = -99.97644937161654
 HF Exchange              Energy = -38.73519998961307
 One-Electron             Energy = -4895.83258503211982
 SCRF wf-dependent energy Energy = -17.59850604671101
 Total Coulomb            Energy = 2229.80342019025784
 Nuclear repulsion Energy = 1724.18024851376163
   13   -1104.6054561353      7.31e-08  
 DFT Correlation          Energy =  -6.44638444822753
 DFT Exchange             Energy = -99.97645079292134
 HF Exchange              Energy = -38.73520022327708
 One-Electron             Energy = -4895.83264383138521
 SCRF wf-dependent energy Energy = -17.59848663797197
 Total Coulomb            Energy = 2229.80346128398378
 Nuclear repulsion Energy = 1724.18024851376163
   14   -1104.6054561361      1.89e-08  
   15   -1104.6054561360      7.51e-09  Convergence criterion met
 ---------------------------------------
 DFT Correlation          Energy =  -6.44638444822753
 DFT Exchange             Energy = -99.97645079292134
 HF Exchange              Energy = -38.73520022327708
 One-Electron             Energy = -4895.83264383138521
 SCRF wf-dependent energy Energy = -17.59848663797197
 Total Coulomb            Energy = 2229.80346128398378
 Final Alpha MO Eigenvalues
            1           2           3           4           5           6
    1 -19.3247365 -19.2588903 -19.2580902 -19.2574296 -19.2566900 -19.2484244
            7           8           9          10          11          12
    1 -19.2430729 -10.3893421 -10.3671631 -10.3582024 -10.3573991 -10.3563567
           13          14          15          16          17          18
    1 -10.3362363 -10.3321294 -10.3305251 -10.3168677 -10.3017672 -10.2930556
           19          20          21          22          23          24
    1 -10.2728702 -10.2703281 -10.2679732 -10.2673372  -1.2524056  -1.1839733
           25          26          27          28          29          30
    1  -1.1768209  -1.1762627  -1.1726619  -1.1575521  -1.1437601  -0.9898174
           31          32          33          34          35          36
    1  -0.9689895  -0.9408817  -0.9043079  -0.8623928  -0.8472241  -0.8454627
           37          38          39          40          41          42
    1  -0.7909743  -0.7842988  -0.7370540  -0.7347405  -0.7301287  -0.7011327
           43          44          45          46          47          48
    1  -0.6717684  -0.6607310  -0.6487341  -0.6407596  -0.6247491  -0.6037769
           49          50          51          52          53          54
    1  -0.5997784  -0.5975690  -0.5927321  -0.5693621  -0.5640301  -0.5532037
           55          56          57          58          59          60
    1  -0.5416529  -0.5294241  -0.5283516  -0.5201726  -0.5090703  -0.5072795
           61          62          63          64          65          66
    1  -0.5027183  -0.4944654  -0.4888213  -0.4819448  -0.4752416  -0.4685215
           67          68          69          70          71          72
    1  -0.4619927  -0.4590027  -0.4507747  -0.4488996  -0.4350601  -0.4337983
           73          74          75          76          77          78
    1  -0.4095467  -0.3762690  -0.3348307  -0.3059459  -0.3016289  -0.2769090
           79          80          81          82          83          84
    1  -0.0907472  -0.0108657   0.0197098   0.0224500   0.0268607   0.0321511
           85          86          87          88          89          90
    1   0.0347362   0.0419197   0.0444143   0.0464488   0.0547239   0.0633802
           91          92          93          94          95          96
    1   0.0708722   0.0752039   0.0804378   0.0833988   0.0854410   0.0915933
           97          98          99         100         101         102
    1   0.0979700   0.1047570   0.1071982   0.1093929   0.1106321   0.1169282
          103         104         105         106         107         108
    1   0.1230029   0.1286602   0.1297802   0.1352789   0.1399856   0.1418066
          109         110         111         112         113         114
    1   0.1445159   0.1503274   0.1542236   0.1617326   0.1635571   0.1694124
          115         116         117         118         119         120
    1   0.1768451   0.1812459   0.1913405   0.1945331   0.1967032   0.1993996
          121         122         123         124         125         126
    1   0.2067495   0.2094696   0.2151807   0.2194604   0.2256986   0.2275551
          127         128         129         130         131         132
    1   0.2307957   0.2339401   0.2367769   0.2403580   0.2467333   0.2518014
          133         134         135         136         137         138
    1   0.2555343   0.2695095   0.2703612   0.2713579   0.2759580   0.2770517
          139         140         141         142         143         144
    1   0.2854733   0.2917344   0.2959300   0.2993316   0.3025008   0.3084372
          145         146         147         148         149         150
    1   0.3109992   0.3140452   0.3171409   0.3217027   0.3266227   0.3307369
          151         152         153         154         155         156
    1   0.3317209   0.3361531   0.3401231   0.3459251   0.3528773   0.3562926
          157         158         159         160         161         162
    1   0.3616717   0.3625877   0.3670820   0.3742651   0.3763087   0.3824972
          163         164         165         166         167         168
    1   0.3894712   0.3906855   0.3960661   0.3997648   0.4026489   0.4155544
          169         170         171         172         173         174
    1   0.4171779   0.4237196   0.4261574   0.4292445   0.4337375   0.4347770
          175         176         177         178         179         180
    1   0.4395412   0.4481803   0.4497128   0.4522347   0.4591287   0.4689868
          181         182         183         184         185         186
    1   0.4710086   0.4735784   0.4751915   0.4771095   0.4888024   0.4899400
          187         188         189         190         191         192
    1   0.4956441   0.4996640   0.5125008   0.5151899   0.5196155   0.5225952
          193         194         195         196         197         198
    1   0.5336934   0.5395747   0.5427739   0.5512889   0.5558427   0.5573138
          199         200         201         202         203         204
    1   0.5599343   0.5657393   0.5707244   0.5797027   0.5841238   0.5933161
          205         206         207         208         209         210
    1   0.5968477   0.6055444   0.6098695   0.6135331   0.6156043   0.6219289
          211         212         213         214         215         216
    1   0.6272563   0.6302657   0.6355332   0.6403067   0.6409478   0.6452125
          217         218         219         220         221         222
    1   0.6533233   0.6556843   0.6597883   0.6690778   0.6722825   0.6753849
          223         224         225         226         227         228
    1   0.6795848   0.6871539   0.6939521   0.6963684   0.7091839   0.7138566
          229         230         231         232         233         234
    1   0.7188392   0.7232562   0.7285712   0.7319210   0.7356065   0.7426948
          235         236         237         238         239         240
    1   0.7504493   0.7606106   0.7640357   0.7735288   0.7751321   0.7806127
          241         242         243         244         245         246
    1   0.7879784   0.7896729   0.7920002   0.7923957   0.8061038   0.8077173
          247         248         249         250         251         252
    1   0.8108515   0.8146008   0.8195746   0.8266634   0.8306006   0.8346755
          253         254         255         256         257         258
    1   0.8436103   0.8455358   0.8574110   0.8635132   0.8737835   0.8762317
          259         260         261         262         263         264
    1   0.8817868   0.8920164   0.9003840   0.9051325   0.9103862   0.9188106
          265         266         267         268         269         270
    1   0.9267932   0.9362855   0.9419974   0.9491705   0.9674144   0.9802891
          271         272         273         274         275         276
    1   0.9870514   0.9936682   1.0002139   1.0216821   1.0232784   1.0347762
          277         278         279         280         281         282
    1   1.0506428   1.0584086   1.0648049   1.0698850   1.0797903   1.0860739
          283         284         285         286         287         288
    1   1.0952412   1.1030534   1.1111018   1.1184132   1.1295541   1.1343949
          289         290         291         292         293         294
    1   1.1390417   1.1453591   1.1578884   1.1704598   1.1729156   1.1747051
          295         296         297         298         299         300
    1   1.1818634   1.1895065   1.2011464   1.2094394   1.2234895   1.2255610
          301         302         303         304         305         306
    1   1.2285226   1.2394897   1.2648369   1.2752194   1.2887057   1.2932625
          307         308         309         310         311         312
    1   1.3141301   1.3233117   1.3356367   1.3388251   1.3464720   1.3561431
          313         314         315         316         317         318
    1   1.3609294   1.3696551   1.3829086   1.3860079   1.3990108   1.4186395
          319         320         321         322         323         324
    1   1.4219973   1.4325335   1.4392834   1.4445378   1.4536225   1.4601665
          325         326         327         328         329         330
    1   1.4658176   1.4711068   1.4770057   1.4857833   1.5058682   1.5139085
          331         332         333         334         335         336
    1   1.5200940   1.5327535   1.5369345   1.5459231   1.5490538   1.5695090
          337         338         339         340         341         342
    1   1.5741367   1.5800269   1.5847828   1.6053710   1.6127286   1.6155384
          343         344         345         346         347         348
    1   1.6350973   1.6441689   1.6522465   1.6587800   1.6728660   1.6897882
          349         350         351         352         353         354
    1   1.6962691   1.7023341   1.7065233   1.7099222   1.7154218   1.7247517
          355         356         357         358         359         360
    1   1.7334942   1.7410127   1.7499787   1.7553200   1.7607317   1.7638763
          361         362         363         364         365         366
    1   1.7679279   1.7794581   1.7992612   1.8086473   1.8232836   1.8328586
          367         368         369         370         371         372
    1   1.8458363   1.8500829   1.8577494   1.8767643   1.8842245   1.8927023
          373         374         375         376         377         378
    1   1.8988076   1.9155371   1.9315869   1.9345395   1.9464882   1.9538400
          379         380         381         382         383         384
    1   1.9565853   1.9664958   1.9708093   1.9771281   1.9855831   2.0013753
          385         386         387         388         389         390
    1   2.0021494   2.0107517   2.0251386   2.0387169   2.0438357   2.0478735
          391         392         393         394         395         396
    1   2.0587792   2.0634941   2.0707578   2.0822744   2.0877552   2.0980489
          397         398         399         400         401         402
    1   2.1058298   2.1294791   2.1333007   2.1382288   2.1506469   2.1586627
          403         404         405         406         407         408
    1   2.1620058   2.1703667   2.1804801   2.1875277   2.1950768   2.1967290
          409         410         411         412         413         414
    1   2.1985291   2.2075829   2.2133142   2.2195105   2.2211909   2.2325077
          415         416         417         418         419         420
    1   2.2400663   2.2616235   2.2748498   2.2797252   2.2837375   2.2901151
          421         422         423         424         425         426
    1   2.3035660   2.3103350   2.3312135   2.3368281   2.3410775   2.3470669
          427         428         429         430         431         432
    1   2.3620476   2.3680118   2.3812256   2.3873594   2.4072150   2.4114436
          433         434         435         436         437         438
    1   2.4184064   2.4371224   2.4467282   2.4632517   2.4749322   2.4911680
          439         440         441         442         443         444
    1   2.5028341   2.5245896   2.5357195   2.5469129   2.5528292   2.5611989
          445         446         447         448         449         450
    1   2.5738778   2.5788403   2.5912140   2.5951042   2.6169576   2.6271003
          451         452         453         454         455         456
    1   2.6480119   2.6515143   2.6697882   2.6733817   2.6835066   2.6846282
          457         458         459         460         461         462
    1   2.6897567   2.6922170   2.7037203   2.7102304   2.7149880   2.7353088
          463         464         465         466         467         468
    1   2.7397075   2.7534550   2.7568064   2.7693587   2.7811112   2.7838833
          469         470         471         472         473         474
    1   2.7891359   2.8005989   2.8064825   2.8129954   2.8303025   2.8401778
          475         476         477         478         479         480
    1   2.8497849   2.8606253   2.8637681   2.8686167   2.8836971   2.8854203
          481         482         483         484         485         486
    1   2.8880410   2.8964746   2.9070898   2.9181818   2.9254635   2.9328359
          487         488         489         490         491         492
    1   2.9388761   2.9404006   2.9519675   2.9608633   2.9654490   2.9683594
          493         494         495         496         497         498
    1   2.9818962   2.9866658   2.9954671   3.0025866   3.0050737   3.0116236
          499         500         501         502         503         504
    1   3.0206229   3.0264043   3.0404370   3.0458783   3.0545641   3.0728506
          505         506         507         508         509         510
    1   3.0749624   3.0786620   3.0787970   3.0970538   3.0996334   3.1155988
          511         512         513         514         515         516
    1   3.1188494   3.1257114   3.1388520   3.1488533   3.1587178   3.1604418
          517         518         519         520         521         522
    1   3.1642882   3.1749854   3.1817667   3.1950255   3.1987243   3.2074380
          523         524         525         526         527         528
    1   3.2108343   3.2132982   3.2259016   3.2343922   3.2404565   3.2434503
          529         530         531         532         533         534
    1   3.2571743   3.2602953   3.2675578   3.2752536   3.2841134   3.2908101
          535         536         537         538         539         540
    1   3.2958204   3.3021256   3.3093606   3.3159416   3.3223586   3.3329266
          541         542         543         544         545         546
    1   3.3354690   3.3430159   3.3546171   3.3595831   3.3619150   3.3759628
          547         548         549         550         551         552
    1   3.3835721   3.3962922   3.3974599   3.4110584   3.4225878   3.4242412
          553         554         555         556         557         558
    1   3.4359318   3.4445676   3.4467783   3.4546880   3.4599735   3.4655797
          559         560         561         562         563         564
    1   3.4707414   3.4766822   3.4901715   3.4975156   3.5033069   3.5069745
          565         566         567         568         569         570
    1   3.5115791   3.5277385   3.5286137   3.5399155   3.5466769   3.5537049
          571         572         573         574         575         576
    1   3.5572702   3.5786930   3.5810574   3.5888059   3.6002841   3.6154878
          577         578         579         580         581         582
    1   3.6256197   3.6261889   3.6373844   3.6496626   3.6684538   3.6708879
          583         584         585         586         587         588
    1   3.6802652   3.6946601   3.7024596   3.7204849   3.7353876   3.7392415
          589         590         591         592         593         594
    1   3.7543783   3.7610817   3.7757860   3.8052475   3.8294834   3.8474505
          595         596         597         598         599         600
    1   3.8522697   3.8631523   3.8805250   3.8914967   3.9138341   3.9256368
          601         602         603         604         605         606
    1   3.9455476   3.9615216   3.9713069   3.9931508   4.0134765   4.0268704
          607         608         609         610         611         612
    1   4.0381061   4.0405563   4.0512983   4.0534179   4.0616984   4.0795695
          613         614         615         616         617         618
    1   4.1014095   4.1062003   4.1493547   4.1575221   4.1723611   4.1826321
          619         620         621         622         623         624
    1   4.2001108   4.2099415   4.2141691   4.2233685   4.2363901   4.2508203
          625         626         627         628         629         630
    1   4.2651075   4.2694454   4.2723222   4.2807447   4.2880307   4.2977830
          631         632         633         634         635         636
    1   4.3111929   4.3127395   4.3676403   4.3769289   4.3866200   4.4097390
          637         638         639         640         641         642
    1   4.4271165   4.4357145   4.4651989   4.4814680   4.4938159   4.5034795
          643         644         645         646         647         648
    1   4.5275790   4.5589378   4.5720199   4.5752078   4.6127257   4.6201866
          649         650         651         652         653         654
    1   4.6398055   4.6527181   4.6556850   4.6684909   4.6859323   4.6960812
          655         656         657         658         659         660
    1   4.7408277   4.7857378   4.8025128   4.8279721   4.8513032   4.8736208
          661         662         663         664         665         666
    1   4.9044895   4.9286962   4.9353260   4.9415186   4.9750220   4.9917285
          667         668         669         670         671         672
    1   5.0033231   5.0302117   5.0807929   5.0825533   5.1258822   5.1314455
          673         674         675         676         677         678
    1   5.1589725   5.1875457   5.2126907   5.2639776   5.2708791   5.3016601
          679         680         681         682         683         684
    1   5.3022568   5.3056142   5.3114513   5.3242657   5.3357103   5.3428917
          685         686         687         688         689         690
    1   5.3658017   5.3923692   5.4170971   5.4324653   5.4792775   5.4953360
          691         692         693         694         695         696
    1   5.5012414   5.5163883   5.5214953   5.5230161   5.5254637   5.5327746
          697         698         699         700         701         702
    1   5.5574570   5.5662840   5.5748532   5.6040344   5.6096804   5.6502021
          703         704         705         706         707         708
    1   5.6773118   5.6942265   5.7155613   5.8015718   5.8088415   5.8155945
          709         710         711         712         713         714
    1   5.8262253   5.8654595   5.9007357   5.9057039   5.9972033   6.0092328
          715         716         717         718         719         720
    1   6.0166493   6.0568300   6.0732506   6.1049775   6.1168823   6.2178393
          721         722         723         724         725         726
    1   6.2588398   6.2764373   6.3089100   6.3843938   6.4043261   6.4170032
          727         728         729         730         731         732
    1   6.4365043   6.4406503   6.4559170   6.4656509   6.4676982   6.4702661
          733         734         735         736         737         738
    1   6.4846268   6.4918339   6.4987556   6.5110414   6.5690995   6.6494127
          739         740         741         742         743         744
    1   6.6615302   6.7097837   6.7357991   6.7694112   6.7756151   6.7765855
          745         746         747         748         749         750
    1   6.7848691   6.8531836   6.8773320   6.8781365   6.9109751   6.9153967
          751         752         753         754         755         756
    1   6.9231820   6.9332816   6.9519599   6.9648860   7.0085167   7.0395345
          757         758         759         760         761         762
    1   7.0941733   7.0964823   7.1140198   7.1400282   7.2031532   7.2977709
          763         764         765         766         767         768
    1   7.3671806   7.3996897   7.4110902   7.4151034   7.4826347   7.5302714
          769         770         771         772         773         774
    1   7.5380865  22.4469227  22.5702104  22.8053592  22.8413585  22.8733265
          775         776         777         778         779         780
    1  22.8993086  22.9651462  23.0068283  23.0606889  23.0726516  23.0878157
          781         782         783         784         785         786
    1  23.1876271  23.3519030  23.5922049  23.6618342  43.9821827  44.1008394
          787         788         789         790         791
    1  44.1340391  44.1444991  44.1644190  44.2870416  44.6575157
 SCF time:   CPU 5196.44s  wall 450.00s 
 DFT Correlation          Energy =  -6.44638444822753
 DFT Exchange             Energy = -99.97645079292134
 HF Exchange              Energy = -38.73520022327708
 One-Electron             Energy = -4895.83264383138521
 SCRF wf-dependent energy Energy = -17.59848663797197
 Total Coulomb            Energy = 2229.80346128398378
 Nuclear repulsion Energy = 1724.18024851376163

************** Final PCM Free Energy Summary **************
 G_electrostatic  =      -0.09923747 hartree =     -62.27245084 kcal/mol
 G_cavitation     =       0.00000000 hartree =       0.00000000 kcal/mol
 G_dispersion     =       0.00000000 hartree =       0.00000000 kcal/mol
 G_repulsion      =       0.00000000 hartree =       0.00000000 kcal/mol
 --------------------------------------------------
 Non-electrostatic Free Energy =       0.00000000 hartree =       0.00000000 kcal/mol
 Total                         =      -0.09923747 hartree =     -62.27245084 kcal/mol
 --------------------------------------------------
 SCF Energy (H0 + V/2)                       =   -1104.60545614 
 Solute Internal Energy (H0)                 =   -1104.50621867 
 Total Free Energy (H0 + V/2 + non-elec)     =   -1104.60545614 hartree
                                             = -693150.38882711 kcal/mol
***********************************************************

 SCF   energy = -1104.60545614
 Total energy = -1104.60545614
 MAX_CIS_SUBSPACE fits in available memory
 Direct TDDFT/TDA calculation will be performed
 Exchange:     0.1900 Hartree-Fock + 0.3500 B88 + 0.4600 muB88 + LR-HF
 Correlation:  0.1900 VWN5 + 0.8100 LYP
 Using SG-1 standard quadrature grid
 Triplet excitation energies requested
 Singlet excitation energies requested
 Adding PCM contribution to the XC response (LR-PCM)
 Optical dielectric constant (eps_inf) =  1.78
 CIS energy converged when residual is below 10e- 6
 ---------------------------------------------------
 Iter    Rts Conv    Rts Left    Ttl Dev     Max Dev
 ---------------------------------------------------
   1         0           7      0.000941    0.000159
   2         0           7      0.000350    0.000076
   3         0           7      0.000241    0.000135
   4         0           7      0.000145    0.000094
   5         2           5      0.000074    0.000054
   6         3           4      0.000079    0.000071
   7         5           2      0.000025    0.000021
   8         6           1      0.000008    0.000006
   9         6           1      0.000003    0.000002
  10         7           0      0.000002    0.000001    Roots Converged
 ---------------------------------------------------
 Triplets done: starting singlet calculation
 ---------------------------------------------------
 Iter    Rts Conv    Rts Left    Ttl Dev     Max Dev
 ---------------------------------------------------
  11         0           7      0.002480    0.000455
  12         0           7      0.000667    0.000170
  13         0           7      0.000370    0.000096
  14         0           7      0.000204    0.000047
  15         0           7      0.000122    0.000051
  16         3           4      0.000075    0.000035
  17         3           4      0.000040    0.000020
  18         4           3      0.000023    0.000012
  19         4           3      0.000013    0.000007
  20         5           2      0.000007    0.000003
  21         6           1      0.000004    0.000001
  22         7           0      0.000004    0.000001    Roots Converged
 ---------------------------------------------------
 
 ---------------------------------------------------
         TDDFT/TDA Excitation Energies              
 ---------------------------------------------------

 Excited state   1: excitation energy (eV) =       1.8331
 Total energy for state   1:                 -1104.53809053 au
    Multiplicity: Triplet
    Trans. Mom.:  0.0000 X   0.0000 Y   0.0000 Z
    Strength   :     0.0000000000
    D(   74) --> V(    1) amplitude =  0.1588
    D(   75) --> V(    1) amplitude = -0.1336
    D(   76) --> V(    1) amplitude =  0.2291
    D(   76) --> V(    2) amplitude =  0.0775
    D(   78) --> V(    1) amplitude =  0.9318

 Excited state   2: excitation energy (eV) =       2.7430
 Total energy for state   2:                 -1104.50465377 au
    Multiplicity: Triplet
    Trans. Mom.:  0.0000 X   0.0000 Y   0.0000 Z
    Strength   :     0.0000000000
    D(   73) --> V(    1) amplitude =  0.1186
    D(   75) --> V(    4) amplitude = -0.1075
    D(   76) --> V(    1) amplitude =  0.8843
    D(   76) --> V(   10) amplitude = -0.0814
    D(   77) --> V(    1) amplitude = -0.1228
    D(   78) --> V(    1) amplitude = -0.2039
    D(   78) --> V(    2) amplitude =  0.2694
    D(   78) --> V(    4) amplitude = -0.1281
    D(   78) --> V(   10) amplitude =  0.0901

 Excited state   3: excitation energy (eV) =       2.9021
 Total energy for state   3:                 -1104.49880559 au
    Multiplicity: Triplet
    Trans. Mom.:  0.0000 X   0.0000 Y   0.0000 Z
    Strength   :     0.0000000000
    D(   76) --> V(    1) amplitude =  0.1178
    D(   77) --> V(    1) amplitude =  0.9258
    D(   77) --> V(    2) amplitude = -0.2499
    D(   77) --> V(    4) amplitude =  0.1540
    D(   77) --> V(   10) amplitude = -0.1458

 Excited state   4: excitation energy (eV) =       2.9083
 Total energy for state   4:                 -1104.49857655 au
    Multiplicity: Singlet
    Trans. Mom.: -2.7512 X  -2.3174 Y   0.2045 Z
    Strength   :     0.9249388309
    D(   76) --> V(    1) amplitude =  0.2553
    D(   78) --> V(    1) amplitude =  0.9466

 Excited state   5: excitation energy (eV) =       3.4251
 Total energy for state   5:                 -1104.47958757 au
    Multiplicity: Triplet
    Trans. Mom.:  0.0000 X   0.0000 Y   0.0000 Z
    Strength   :     0.0000000000
    D(   72) --> V(    1) amplitude =  0.1578
    D(   74) --> V(    1) amplitude = -0.0827
    D(   75) --> V(    1) amplitude =  0.8780
    D(   75) --> V(    4) amplitude = -0.1038
    D(   76) --> V(    2) amplitude =  0.1761
    D(   76) --> V(    4) amplitude = -0.1993
    D(   78) --> V(    1) amplitude =  0.0974
    D(   78) --> V(    2) amplitude = -0.1953
    D(   78) --> V(   10) amplitude = -0.1516

 Excited state   6: excitation energy (eV) =       3.5024
 Total energy for state   6:                 -1104.47674644 au
    Multiplicity: Singlet
    Trans. Mom.: -0.1088 X  -0.3563 Y  -0.2901 Z
    Strength   :     0.0191302540
    D(   75) --> V(    1) amplitude = -0.1035
    D(   76) --> V(    1) amplitude = -0.2903
    D(   77) --> V(    1) amplitude =  0.9244
    D(   77) --> V(    2) amplitude = -0.0902
    D(   78) --> V(    6) amplitude =  0.1015

 Excited state   7: excitation energy (eV) =       3.5741
 Total energy for state   7:                 -1104.47411164 au
    Multiplicity: Singlet
    Trans. Mom.:  1.2019 X   0.7674 Y  -0.2917 Z
    Strength   :     0.1855065480
    D(   74) --> V(    1) amplitude = -0.0790
    D(   75) --> V(    1) amplitude =  0.2604
    D(   76) --> V(    1) amplitude =  0.8524
    D(   77) --> V(    1) amplitude =  0.3128
    D(   78) --> V(    1) amplitude = -0.2365
    D(   78) --> V(    2) amplitude =  0.0929

 Excited state   8: excitation energy (eV) =       3.8600
 Total energy for state   8:                 -1104.46360508 au
    Multiplicity: Triplet
    Trans. Mom.:  0.0000 X   0.0000 Y   0.0000 Z
    Strength   :     0.0000000000
    D(   74) --> V(    1) amplitude = -0.2656
    D(   74) --> V(   26) amplitude =  0.0757
    D(   75) --> V(    2) amplitude = -0.2212
    D(   76) --> V(    1) amplitude = -0.2102
    D(   76) --> V(    2) amplitude =  0.3659
    D(   76) --> V(   10) amplitude = -0.1243
    D(   77) --> V(    6) amplitude =  0.1057
    D(   78) --> V(    1) amplitude =  0.0947
    D(   78) --> V(    2) amplitude =  0.7708
    D(   78) --> V(   10) amplitude = -0.1115

 Excited state   9: excitation energy (eV) =       4.0661
 Total energy for state   9:                 -1104.45603044 au
    Multiplicity: Triplet
    Trans. Mom.:  0.0000 X   0.0000 Y   0.0000 Z
    Strength   :     0.0000000000
    D(   60) --> V(    1) amplitude = -0.1196
    D(   72) --> V(    1) amplitude =  0.1194
    D(   73) --> V(    1) amplitude =  0.3101
    D(   74) --> V(    1) amplitude =  0.7641
    D(   74) --> V(    2) amplitude =  0.1633
    D(   74) --> V(   10) amplitude =  0.0747
    D(   75) --> V(    1) amplitude =  0.1865
    D(   76) --> V(    1) amplitude = -0.1495
    D(   76) --> V(    4) amplitude =  0.1504
    D(   77) --> V(    6) amplitude =  0.1050
    D(   78) --> V(    2) amplitude =  0.2367
    D(   78) --> V(    4) amplitude =  0.1117
    D(   78) --> V(   10) amplitude =  0.2003

 Excited state  10: excitation energy (eV) =       4.3034
 Total energy for state  10:                 -1104.44731016 au
    Multiplicity: Triplet
    Trans. Mom.:  0.0000 X   0.0000 Y   0.0000 Z
    Strength   :     0.0000000000
    D(   72) --> V(    1) amplitude = -0.1117
    D(   73) --> V(    1) amplitude = -0.1020
    D(   74) --> V(    2) amplitude =  0.0807
    D(   74) --> V(    4) amplitude =  0.0795
    D(   75) --> V(    2) amplitude = -0.1892
    D(   75) --> V(    4) amplitude = -0.2392
    D(   75) --> V(    6) amplitude = -0.0757
    D(   76) --> V(    1) amplitude = -0.1177
    D(   76) --> V(    2) amplitude = -0.4701
    D(   76) --> V(    4) amplitude = -0.4457
    D(   76) --> V(   10) amplitude = -0.0967
    D(   77) --> V(    4) amplitude = -0.0782
    D(   77) --> V(    6) amplitude =  0.4534
    D(   78) --> V(    4) amplitude = -0.3030
    D(   78) --> V(    6) amplitude = -0.1237
    D(   78) --> V(   10) amplitude =  0.0849

 Excited state  11: excitation energy (eV) =       4.4498
 Total energy for state  11:                 -1104.44192865 au
    Multiplicity: Singlet
    Trans. Mom.:  0.1035 X  -0.4127 Y  -0.2932 Z
    Strength   :     0.0291104324
    D(   75) --> V(    1) amplitude =  0.8364
    D(   75) --> V(    2) amplitude =  0.0924
    D(   76) --> V(    1) amplitude = -0.2923
    D(   76) --> V(    2) amplitude =  0.3009
    D(   77) --> V(    6) amplitude = -0.0850
    D(   78) --> V(    2) amplitude =  0.2389
    D(   78) --> V(    4) amplitude =  0.1051

 Excited state  12: excitation energy (eV) =       5.1019
 Total energy for state  12:                 -1104.41796511 au
    Multiplicity: Singlet
    Trans. Mom.: -0.8922 X   0.3534 Y   0.6380 Z
    Strength   :     0.1660011090
    D(   73) --> V(    1) amplitude =  0.0738
    D(   74) --> V(    1) amplitude =  0.4626
    D(   75) --> V(    1) amplitude = -0.2938
    D(   75) --> V(    4) amplitude = -0.1433
    D(   76) --> V(    2) amplitude =  0.2365
    D(   76) --> V(   10) amplitude = -0.1160
    D(   77) --> V(    6) amplitude =  0.1192
    D(   78) --> V(    2) amplitude =  0.7096
    D(   78) --> V(    4) amplitude =  0.2061

 Excited state  13: excitation energy (eV) =       5.3965
 Total energy for state  13:                 -1104.40713703 au
    Multiplicity: Singlet
    Trans. Mom.:  0.5377 X   0.8004 Y   0.0824 Z
    Strength   :     0.1238137873
    D(   74) --> V(    1) amplitude = -0.3207
    D(   75) --> V(    2) amplitude = -0.1115
    D(   75) --> V(    6) amplitude = -0.0912
    D(   75) --> V(   10) amplitude =  0.0756
    D(   76) --> V(    2) amplitude = -0.3522
    D(   76) --> V(    4) amplitude = -0.1669
    D(   76) --> V(    6) amplitude =  0.1439
    D(   77) --> V(    1) amplitude =  0.1377
    D(   77) --> V(    2) amplitude =  0.4296
    D(   77) --> V(    4) amplitude = -0.1375
    D(   77) --> V(   10) amplitude =  0.2237
    D(   78) --> V(    2) amplitude =  0.3823
    D(   78) --> V(    4) amplitude = -0.1147
    D(   78) --> V(    6) amplitude = -0.4673

 Excited state  14: excitation energy (eV) =       5.4256
 Total energy for state  14:                 -1104.40606828 au
    Multiplicity: Singlet
    Trans. Mom.: -0.0759 X  -0.5579 Y  -0.2652 Z
    Strength   :     0.0514826794
    D(   74) --> V(    1) amplitude =  0.2404
    D(   75) --> V(    2) amplitude =  0.1450
    D(   75) --> V(   10) amplitude = -0.0897
    D(   76) --> V(    2) amplitude =  0.3492
    D(   76) --> V(    6) amplitude =  0.1878
    D(   77) --> V(    1) amplitude =  0.1142
    D(   77) --> V(    2) amplitude =  0.4154
    D(   77) --> V(    4) amplitude = -0.1104
[...]
      XZZZ     603.0461   YZZZ    -609.4819   ZZZZ   -1202.9170
    5th-Order Moments (Debye-Ang^4)
       500   12286.0410    410  -10766.0235    320   -1942.7552
       230   -8641.8271    140   -6616.1786    050  -57442.5068
       401   -1564.0045    311     782.1667    221   -2080.0047
       131    1011.5671    041   -4284.6276    302    2745.5721
       212   -2046.4750    122   -1340.8098    032   -8094.3922
       203   -3071.7355    113     698.0468    023   -3038.9252
       104    2092.2465    014   -3463.1211    005   -2931.9849
 -----------------------------------------------------------------
 -----------------------------------------------------------------
                 RPA Excited-State Multipoles, State    4   
                  LMN = < X^L Y^M Z^N >
 -----------------------------------------------------------------
    Charge (ESU x 10^10)
                 4.8032
    Dipole Moment (Debye)
         X      -0.5868      Y       9.9991      Z      -1.5876
       Tot      10.1414
    Quadrupole Moments (Debye-Ang)
        XX     -48.0198     XY      49.8427     YY     -51.2036
        XZ     -19.9833     YZ      -0.7761     ZZ    -109.8979
    Octopole Moments (Debye-Ang^2)
       XXX      16.3300    XXY    -289.8506    XYY     251.7549
       YYY    -526.5066    XXZ      -9.1530    XYZ      -5.8960
       YYZ     -34.2622    XZZ     120.2421    YZZ    -258.2953
       ZZZ    -186.8704
    Hexadecapole Moments (Debye-Ang^3)
      XXXX   -3660.7761   XXXY    -236.1908   XXYY   -1809.4000
      XYYY     -82.5124   YYYY   -6083.7736   XXXZ      37.8026
      XXYZ    -368.5331   XYYZ     230.2641   YYYZ    -259.2819
      XXZZ   -1037.0938   XYZZ    -215.7532   YYZZ   -1375.1330
      XZZZ     646.9104   YZZZ    -573.7491   ZZZZ   -1196.3684
    5th-Order Moments (Debye-Ang^4)
       500   14578.2161    410  -11212.3136    320   -1778.6211
       230   -8947.6872    140   -6831.3902    050  -53777.0699
       401   -2452.8083    311     865.0228    221   -2306.8053
       131    1036.2748    041   -2736.3632    302    3151.4127
       212   -2065.9575    122   -1091.0021    032   -7185.6223
       203   -3255.9495    113     781.0346    023   -2787.4684
       104    2226.5191    014   -3335.7694    005   -2932.3148
 -----------------------------------------------------------------
 -----------------------------------------------------------------
                 RPA Excited-State Multipoles, State    5   
                  LMN = < X^L Y^M Z^N >
 -----------------------------------------------------------------
    Charge (ESU x 10^10)
                 4.8032
    Dipole Moment (Debye)
         X     -11.7924      Y       1.0885      Z      -0.6984
       Tot      11.8631
    Quadrupole Moments (Debye-Ang)
        XX     -18.8569     XY      37.2200     YY     -92.7489
        XZ     -27.4152     YZ      -7.4177     ZZ    -112.7939
    Octopole Moments (Debye-Ang^2)
       XXX    -151.3097    XXY    -301.9021    XYY     205.2418
       YYY    -729.8305    XXZ      32.9209    XYZ      -6.0288
       YYZ     -76.8272    XZZ      97.8615    YZZ    -288.9277
       ZZZ    -188.5647
    Hexadecapole Moments (Debye-Ang^3)
      XXXX   -2954.7718   XXXY    -270.3794   XXYY   -1800.6976
      XYYY    -192.0691   YYYY   -7039.8671   XXXZ    -103.6268
      XXYZ    -334.3361   XYYZ     221.9684   YYYZ    -524.3383
      XXZZ    -990.1686   XYZZ    -260.4797   YYZZ   -1535.9956
      XZZZ     614.6196   YZZZ    -616.1339   ZZZZ   -1211.3539
    5th-Order Moments (Debye-Ang^4)
       500   10870.9701    410  -11250.4420    320   -1922.1183
       230   -8841.9446    140   -7009.3030    050  -58394.3044
       401   -1563.4329    311     943.1419    221   -2154.6774
       131     976.5218    041   -4338.9268    302    2820.1659
       212   -2121.5934    122   -1314.0274    032   -8070.5928
       203   -3131.3496    113     735.0129    023   -3041.0302
       104    2129.8765    014   -3479.0261    005   -2952.2985
 -----------------------------------------------------------------
 -----------------------------------------------------------------
                 RPA Excited-State Multipoles, State    6   
                  LMN = < X^L Y^M Z^N >
 -----------------------------------------------------------------
    Charge (ESU x 10^10)
                 4.8032
    Dipole Moment (Debye)
         X      -1.5153      Y       9.6006      Z      -1.6593
       Tot       9.8601
    Quadrupole Moments (Debye-Ang)
        XX     -38.1541     XY      52.3074     YY     -54.0856
        XZ     -23.6974     YZ      -5.4186     ZZ    -110.9839
    Octopole Moments (Debye-Ang^2)
       XXX       0.7021    XXY    -271.4782    XYY     264.1213
       YYY    -553.2010    XXZ      -6.5467    XYZ     -16.8862
       YYZ     -65.7471    XZZ     116.6992    YZZ    -267.3414
       ZZZ    -189.5452
    Hexadecapole Moments (Debye-Ang^3)
      XXXX   -3501.9625   XXXY    -170.9084   XXYY   -1699.9084
      XYYY       5.5474   YYYY   -6269.7766   XXXZ       9.5072
      XXYZ    -381.6006   XYYZ     175.5633   YYYZ    -456.4125
      XXZZ   -1028.6798   XYZZ    -226.5468   YYZZ   -1433.5870
      XZZZ     633.4419   YZZZ    -600.6191   ZZZZ   -1204.4585
    5th-Order Moments (Debye-Ang^4)
       500   14287.8673    410  -11007.1295    320   -1496.3738
       230   -8425.5118    140   -6336.0619    050  -55035.4889
       401   -2440.3224    311     811.7941    221   -2378.7686
       131     753.6223    041   -3934.6526    302    3150.1099
       212   -2056.5429    122   -1152.4344    032   -7555.7254
       203   -3262.6925    113     729.1654    023   -2957.9529
       104    2208.9613    014   -3394.5137    005   -2954.1866
 -----------------------------------------------------------------
 -----------------------------------------------------------------
                 RPA Excited-State Multipoles, State    7   
                  LMN = < X^L Y^M Z^N >
 -----------------------------------------------------------------
    Charge (ESU x 10^10)
                 4.8032
    Dipole Moment (Debye)
         X      -7.8953      Y       6.1193      Z       0.3361
       Tot       9.9947
    Quadrupole Moments (Debye-Ang)
        XX     -28.2994     XY      43.2360     YY     -64.3325
        XZ     -23.5557     YZ       0.9948     ZZ    -110.9941
    Octopole Moments (Debye-Ang^2)
       XXX     -91.7161    XXY    -292.9520    XYY     233.4770
       YYY    -575.1576    XXZ      22.1921    XYZ       0.6935
       YYZ     -31.5973    XZZ     105.5242    YZZ    -271.9361
       ZZZ    -182.9712
    Hexadecapole Moments (Debye-Ang^3)
      XXXX   -3296.4775   XXXY    -273.7574   XXYY   -1754.7045
      XYYY     -31.6714   YYYY   -6169.1658   XXXZ      -4.1122
      XXYZ    -304.5465   XYYZ     275.3906   YYYZ    -263.5646
      XXZZ   -1017.7185   XYZZ    -248.7318   YYZZ   -1445.7852
      XZZZ     631.8556   YZZZ    -577.6215   ZZZZ   -1200.2826
    5th-Order Moments (Debye-Ang^4)
       500   12718.2851    410  -11318.5558    320   -1948.5646
       230   -8621.8287    140   -6092.0895    050  -53378.2508
       401   -2062.0722    311     985.0745    221   -2029.2535
       131    1297.1459    041   -2814.9271    302    3007.0559
       212   -2100.3111    122   -1229.2072    032   -7555.5172
       203   -3185.2453    113     774.6506    023   -2830.2132
       104    2172.5855    014   -3389.1229    005   -2917.7944
 -----------------------------------------------------------------
 -----------------------------------------------------------------
                 RPA Excited-State Multipoles, State    8   
                  LMN = < X^L Y^M Z^N >
 -----------------------------------------------------------------
    Charge (ESU x 10^10)
                 4.8032
    Dipole Moment (Debye)
         X      -6.6002      Y       3.2123      Z      -2.2454
       Tot       7.6761
    Quadrupole Moments (Debye-Ang)
        XX     -41.7981     XY      37.6783     YY     -85.9491
        XZ     -21.4470     YZ      -6.3583     ZZ    -113.5938
    Octopole Moments (Debye-Ang^2)
       XXX     -39.0376    XXY    -292.4501    XYY     215.1797
       YYY    -698.2263    XXZ      11.9358    XYZ      -6.7691
       YYZ     -73.8905    XZZ     103.5947    YZZ    -287.0030
       ZZZ    -191.6024
    Hexadecapole Moments (Debye-Ang^3)
      XXXX   -3499.4373   XXXY    -313.7638   XXYY   -1800.2707
      XYYY    -157.8902   YYYY   -6897.9455   XXXZ      -3.2847
      XXYZ    -311.1917   XYYZ     232.9771   YYYZ    -507.8407
      XXZZ   -1016.6355   XYZZ    -269.5160   YYZZ   -1537.0427
      XZZZ     624.2250   YZZZ    -613.0033   ZZZZ   -1212.9711
    5th-Order Moments (Debye-Ang^4)
       500   13492.2759    410  -11024.2741    320   -1867.2334
       230   -8749.5062    140   -6793.9504    050  -57691.1168
       401   -1961.9035    311     887.3077    221   -2120.5741
       131    1014.5576    041   -4281.0330    302    2922.6688
       212   -2093.1084    122   -1326.6980    032   -8086.2304
       203   -3160.9075    113     721.9286    023   -3042.2792
       104    2136.8215    014   -3474.3198    005   -2960.1185
 -----------------------------------------------------------------
 -----------------------------------------------------------------
                 RPA Excited-State Multipoles, State    9   
                  LMN = < X^L Y^M Z^N >
 -----------------------------------------------------------------
    Charge (ESU x 10^10)
                 4.8032
    Dipole Moment (Debye)
         X      -9.7650      Y      -0.2774      Z      -2.4414
       Tot      10.0694
    Quadrupole Moments (Debye-Ang)
        XX     -37.3258     XY      28.3687     YY    -105.3660
        XZ     -24.7646     YZ      -7.5554     ZZ    -112.1774
    Octopole Moments (Debye-Ang^2)
       XXX     -85.0172    XXY    -299.0586    XYY     177.6771
       YYY    -795.0758    XXZ      25.3070    XYZ     -11.2916
       YYZ     -79.8458    XZZ      95.7545    YZZ    -288.6376
       ZZZ    -190.1182
    Hexadecapole Moments (Debye-Ang^3)
      XXXX   -3325.2195   XXXY    -412.2301   XXYY   -1887.6406
      XYYY    -367.0211   YYYY   -7430.6215   XXXZ     -84.4289
      XXYZ    -302.9625   XYYZ     214.3441   YYYZ    -549.0963
      XXZZ    -983.6862   XYZZ    -282.8658   YYZZ   -1553.3116
      XZZZ     606.5683   YZZZ    -614.3647   ZZZZ   -1204.4673
    5th-Order Moments (Debye-Ang^4)
       500   12220.7685    410  -10948.8267    320   -2205.9981
       230   -9272.1502    140   -7965.3655    050  -60707.7340
       401   -1517.5157    311     800.5715    221   -2120.7108
       131     933.1069    041   -4532.8275    302    2719.4881
       212   -2069.6634    122   -1369.6327    032   -8184.6310
       203   -3071.7478    113     701.0596    023   -3059.2211
       104    2087.9219    014   -3476.0041    005   -2942.7260
 -----------------------------------------------------------------
 -----------------------------------------------------------------
                 RPA Excited-State Multipoles, State   10   
                  LMN = < X^L Y^M Z^N >
 -----------------------------------------------------------------
    Charge (ESU x 10^10)
                 4.8032
    Dipole Moment (Debye)
         X      -8.1984      Y       2.0078      Z      -2.0312
       Tot       8.6817
    Quadrupole Moments (Debye-Ang)
        XX     -41.4618     XY      33.7756     YY     -91.8309
        XZ     -21.7336     YZ      -5.6849     ZZ    -113.2578
    Octopole Moments (Debye-Ang^2)
       XXX     -48.7126    XXY    -303.2825    XYY     190.2958
       YYY    -738.1344    XXZ      10.0453    XYZ      -9.5112
       YYZ     -72.8230    XZZ     103.0841    YZZ    -285.7754
       ZZZ    -190.7904
    Hexadecapole Moments (Debye-Ang^3)
      XXXX   -3523.5417   XXXY    -336.3020   XXYY   -1848.3369
      XYYY    -282.8971   YYYY   -7134.1225   XXXZ       8.2519
      XXYZ    -313.0434   XYYZ     223.6028   YYYZ    -506.4736
      XXZZ   -1021.6906   XYZZ    -270.9796   YYZZ   -1532.2898
      XZZZ     627.2692   YZZZ    -609.2673   ZZZZ   -1213.4087
    5th-Order Moments (Debye-Ang^4)
       500   13655.5192    410  -11138.4075    320   -2042.5346
       230   -9065.6658    140   -7503.3921    050  -59107.3540
       401   -2082.8972    311     871.0250    221   -2144.6827
       131     970.9011    041   -4283.7826    302    2961.6111
       212   -2099.3920    122   -1331.9310    032   -8067.1889
       203   -3183.4896    113     722.3815    023   -3028.4566
       104    2145.8821    014   -3470.1564    005   -2961.6743
 -----------------------------------------------------------------
 -----------------------------------------------------------------
                 RPA Excited-State Multipoles, State   11   
                  LMN = < X^L Y^M Z^N >
 -----------------------------------------------------------------
    Charge (ESU x 10^10)
                 4.8032
    Dipole Moment (Debye)
         X      -8.2767      Y       4.3342      Z      -0.8023
       Tot       9.3773
    Quadrupole Moments (Debye-Ang)
        XX     -20.4939     XY      45.1909     YY     -74.5605
        XZ     -27.0560     YZ      -5.6093     ZZ    -111.8644
    Octopole Moments (Debye-Ang^2)
       XXX    -122.3686    XXY    -276.3080    XYY     250.7118
       YYY    -622.6364    XXZ      35.1719    XYZ      -6.4822
       YYZ     -65.8854    XZZ      98.7396    YZZ    -281.9864
       ZZZ    -186.4838
    Hexadecapole Moments (Debye-Ang^3)
      XXXX   -2959.9836   XXXY    -244.1787   XXYY   -1688.7946
      XYYY      51.4258   YYYY   -6418.7478   XXXZ    -134.6435
      XXYZ    -318.0855   XYYZ     234.0771   YYYZ    -452.9377
      XXZZ    -968.9960   XYZZ    -255.7325   YYZZ   -1501.6481
      XZZZ     606.2317   YZZZ    -605.5832   ZZZZ   -1202.4095
    5th-Order Moments (Debye-Ang^4)
       500   11034.6847    410  -10815.5875    320   -1592.2270
       230   -8192.9910    140   -5609.9521    050  -54719.4956
       401   -1355.1109    311     842.3563    221   -2128.2348
       131    1063.4002    041   -3889.1243    302    2720.6889
       212   -2053.9188    122   -1258.2263    032   -7871.5848
       203   -3072.2901    113     723.5714    023   -2988.4254
       104    2110.8963    014   -3441.1749    005   -2928.7022
 -----------------------------------------------------------------
 -----------------------------------------------------------------
                 RPA Excited-State Multipoles, State   12   
                  LMN = < X^L Y^M Z^N >
 -----------------------------------------------------------------
    Charge (ESU x 10^10)
                 4.8032
    Dipole Moment (Debye)
         X      -6.2851      Y       2.9500      Z      -2.5301
       Tot       7.3896
    Quadrupole Moments (Debye-Ang)
        XX     -42.5274     XY      38.2930     YY     -85.6201
        XZ     -21.2966     YZ      -5.8379     ZZ    -113.3999
    Octopole Moments (Debye-Ang^2)
       XXX     -32.1935    XXY    -290.1170    XYY     216.8649
       YYY    -694.5257    XXZ      11.2571    XYZ      -8.5686
       YYZ     -72.1512    XZZ     103.5935    YZZ    -285.9328
       ZZZ    -191.5297
    Hexadecapole Moments (Debye-Ang^3)
      XXXX   -3539.7978   XXXY    -320.8419   XXYY   -1786.9276
      XYYY    -138.3289   YYYY   -6859.3833   XXXZ      -1.9841
      XXYZ    -301.1059   XYYZ     234.0177   YYYZ    -496.6548
      XXZZ   -1014.0112   XYZZ    -272.2361   YYZZ   -1534.1793
      XZZZ     623.0616   YZZZ    -610.0616   ZZZZ   -1212.8427
    5th-Order Moments (Debye-Ang^4)
       500   13779.0181    410  -10934.8732    320   -1862.8384
       230   -8702.0853    140   -6687.0608    050  -57428.9574
       401   -1968.9824    311     834.9896    221   -2116.7019
       131    1021.2918    041   -4218.4712    302    2910.8381
       212   -2071.7796    122   -1323.1012    032   -8066.8940
       203   -3155.0497    113     713.7154    023   -3033.9559
       104    2137.3815    014   -3468.6215    005   -2959.5673
 -----------------------------------------------------------------
 -----------------------------------------------------------------
                 RPA Excited-State Multipoles, State   13   
                  LMN = < X^L Y^M Z^N >
 -----------------------------------------------------------------
    Charge (ESU x 10^10)
                 4.8032
    Dipole Moment (Debye)
         X      -7.9746      Y       1.2106      Z      -2.5754
       Tot       8.4672
    Quadrupole Moments (Debye-Ang)
        XX     -34.2911     XY      33.4448     YY     -96.8375
        XZ     -26.2908     YZ      -7.4267     ZZ    -111.5627
    Octopole Moments (Debye-Ang^2)
       XXX     -87.8389    XXY    -285.5689    XYY     204.6275
       YYY    -743.5443    XXZ      31.1572    XYZ     -11.6631
       YYZ     -78.3161    XZZ      96.0118    YZZ    -287.2675
       ZZZ    -190.2359
    Hexadecapole Moments (Debye-Ang^3)
      XXXX   -3223.1598   XXXY    -376.1950   XXYY   -1815.8005
      XYYY    -218.5163   YYYY   -7125.4868   XXXZ    -120.8599
      XXYZ    -300.5853   XYYZ     217.2812   YYYZ    -536.3133
      XXZZ    -970.8507   XYZZ    -278.7012   YYZZ   -1546.0213
      XZZZ     600.6664   YZZZ    -614.2206   ZZZZ   -1202.9044
    5th-Order Moments (Debye-Ang^4)
       500   11854.8688    410  -10760.6060    320   -1966.9869
       230   -8852.2802    140   -7102.2894    050  -58863.5829
       401   -1340.5024    311     771.9157    221   -2118.2485
       131     960.0348    041   -4437.6738    302    2667.4859
       212   -2046.8884    122   -1343.5239    032   -8136.2793
       203   -3047.5197    113     697.0132    023   -3054.2402
       104    2087.2858    014   -3471.9070    005   -2944.4518
 -----------------------------------------------------------------
 -----------------------------------------------------------------
                 RPA Excited-State Multipoles, State   14   
                  LMN = < X^L Y^M Z^N >
 -----------------------------------------------------------------
    Charge (ESU x 10^10)
                 4.8032
    Dipole Moment (Debye)
         X      -5.7675      Y       4.5467      Z      -2.0853
       Tot       7.6345
    Quadrupole Moments (Debye-Ang)
        XX     -38.8845     XY      42.7694     YY     -78.1537
        XZ     -22.0709     YZ      -6.8698     ZZ    -114.0516
    Octopole Moments (Debye-Ang^2)
       XXX     -29.0903    XXY    -281.4279    XYY     239.6511
       YYY    -655.7888    XXZ       6.4477    XYZ      -9.0604
       YYZ     -75.8697    XZZ     107.0975    YZZ    -285.9876
       ZZZ    -192.2468
    Hexadecapole Moments (Debye-Ang^3)
      XXXX   -3457.1552   XXXY    -232.0533   XXYY   -1728.1317
      XYYY     -34.8982   YYYY   -6676.2381   XXXZ      -1.1848
      XXYZ    -339.4658   XYYZ     214.4367   YYYZ    -518.2445
      XXZZ   -1023.2122   XYZZ    -256.7848   YYZZ   -1525.6370
      XZZZ     628.5846   YZZZ    -615.3495   ZZZZ   -1221.5271
    5th-Order Moments (Debye-Ang^4)
       500   13615.4772    410  -10978.1748    320   -1545.8176
       230   -8340.2811    140   -6116.2891    050  -56468.2446
       401   -2096.8738    311     893.4531    221   -2205.2585
       131     935.1554    041   -4311.8408    302    3003.3137
       212   -2094.6562    122   -1281.4281    032   -8017.5080
       203   -3204.3083    113     724.2432    023   -3045.5502
       104    2157.7754    014   -3489.5787    005   -2973.1871
 -----------------------------------------------------------------
 Total job time:  4351.26s(wall), 59608.75s(cpu) 
 Fri Jan 31 02:30:52 2025

        *************************************************************
        *                                                           *
        *  Thank you very much for using Q-Chem.  Have a nice day.  *
        *                                                           *
        *************************************************************


