
Running Job 1 of 1 Delphinidin_Q3_tddft_full.in
qchem Delphinidin_Q3_tddft_full.in_3275392.0 /data/brussel/103/vsc10365/activedata/TDDFTAnthocyanidines/qchem3275392/ 1
/apps/brussel/RL8/skylake/software/Q-Chem/6.2.0/exe/qcprog.exe_s Delphinidin_Q3_tddft_full.in_3275392.0 /data/brussel/103/vsc10365/activedata/TDDFTAnthocyanidines/qchem3275392/
                  Welcome to Q-Chem
     A Quantum Leap Into The Future Of Chemistry


 Q-Chem 6.2, Q-Chem, Inc., Pleasanton, CA (2024)

 License issued to: SRG Prof. Dr. Frank De Proft, Vrije Universiteit Brussel

 E. Epifanovsky,  A. T. B. Gilbert,  Xintian Feng,  Joonho Lee,  Yuezhi Mao,  
 N. Mardirossian,  P. Pokhilko,  A. White,  M. Wormit,  M. P. Coons,  
 A. L. Dempwolff,  Zhengting Gan,  D. Hait,  P. R. Horn,  L. D. Jacobson,  
 I. Kaliman,  J. Kussmann,  A. W. Lange,  Ka Un Lao,  D. S. Levine,  Jie Liu,  
 S. C. McKenzie,  A. F. Morrison,  K. D. Nanda,  F. Plasser,  D. R. Rehn,  
 M. L. Vidal,  Zhi-Qiang You,  Ying Zhu,  Huseyin Aksu,  B. Alam,  
 B. Albrecht,  A. Aldossary,  E. Alguire,  J. H. Andersen,  
 J. E. Arias-Martinez,  V. Athavale,  D. Barton,  K. Begam,  A. Behn,  
 N. Bellonzi,  Y. A. Bernard,  E. J. Berquist,  H. Burton,  A. Carreras,  
 K. Carter-Fenk,  Mathew Chow,  Romit Chakraborty,  Chandrima Chakravarty,  
 Junhan Chen,  A. D. Chien,  K. D. Closser,  V. Cofer-Shabica,  L. Cunha,  
 S. Dasgupta,  Jia Deng,  Joseph Dickinson,  M. de Wergifosse,  
 M. Diedenhofen,  Hainam Do,  Wenjie Dou,  S. Ehlert,  Po-Tung Fang,  
 S. Fatehi,  Qingguo Feng,  Jonathan Fetherolf,  T. Friedhoff,  
 Thomas Froitzheim,  Sarai Folkestad,  B. Ganoe,  J. Gayvert,  Qinghui Ge,  
 G. Gidofalvi,  M. Gimferrer,  M. Goldey,  Montgomery Gray,  J. Gomes,  
 C. Gonzalez-Espinoza,  S. Gulania,  A. Gunina,  J. A. Gyamfi,  
 M. W. D. Hanson-Heine,  P. H. P. Harbach,  A. W. Hauser,  M. F. Herbst,  
 M. Hernandez Vera,  M. Hodecker,  Z. C. Holden,  S. Houck,  Xunkun Huang,  
 Kerwin Hui,  B. C. Huynh,  K. Ikeda,  M. Ivanov,  Nayanthara K. Jayadev,  
 Hyunjun Ji,  Zuxin Jin,  Hanjie Jiang,  Subrata Jana,  B. Kaduk,  
 S. Kaehler,  R. Kang,  K. Khistyaev,  Jaehoon Kim,  Yongbin Kim,  
 P. Klunzinger,  Z. Koczor-Benda,  Joong Hoon Koh,  D. Kosenkov,  
 Saikiran Kotaru,  L. Koulias,  T. Kowalczyk,  C. M. Krauter,  K. Kue,  
 A. Kunitsa,  T. Kus,  A. Landau,  K. V. Lawler,  D. Lefrancois,  S. Lehtola,  
 Rain Li,  Shaozhi Li,  Tao E. Li,  Yi-Pei Li,  Jiashu Liang,  M. Liebenthal,  
 Hung-Hsuan Lin,  You-Sheng Lin,  Fenglai Liu,  Kuan-Yu Liu,  Xiao Liu,  
 M. Loipersberger,  A. Luenser,  C. Malbon,  Aniket Mandal,  Manisha,  
 A. Manjanath,  P. Manohar,  E. Mansoor,  S. F. Manzer,  Shan-Ping Mao,  
 A. V. Marenich,  T. Markovich,  S. Mason,  F. Matz,  S. A. Maurer,  
 Samuel May,  Alexandra McIsaac,  P. F. McLaughlin,  M. F. S. J. Menger,  
 J.-M. Mewes,  S. A. Mewes,  P. Morgante,  Mohammad Mostafanejad,  
 Madhubani Mukherjee,  J. W. Mullinax,  Quyen Nguyen,  Avik Kumar Ojha,  
 K. J. Oosterbaan,  Eno Paenurk,  Xiaoliang Pan,  G. Paran,  V. Parravicini,  
 Alexander C. Paul,  Suranjan K. Paul,  F. Pavosevic,  Zheng Pei,  S. Prager,  
 E. I. Proynov,  E. Ramos,  B. Rana,  A. E. Rask,  A. Rettig,  R. M. Richard,  
 F. Rob,  E. Rossomme,  T. Scheele,  M. Scheurer,  M. Schneider,  
 P. E. Schneider,  Tim K. Schramm,  N. Sergueev,  S. M. Sharada,  
 Hengyuan Shen,  W. Skomorowski,  D. W. Small,  C. J. Stein,  
 Alistair J. Sterling,  Yingli Su,  Yu-Chuan Su,  E. J. Sundstrom,  
 J. Talbot,  Zhen Tao,  J. Thirman,  Hung-Yi Tsai,  T. Tsuchimochi,  
 N. M. Tubman,  C. Utku,  S. P. Veccham,  O. Vydrov,  Rahel Weiss,  
 J. Wenzel,  Jonathan Wong,  J. Witte,  H. Wu,  Yanze Wu,  A. Yamada,  
 Chou-Hsun Yang,  Kun Yao,  S. Yeganeh,  S. R. Yost,  Qi Yu,  A. Zech,  
 F. Zeller,  Chongxiao Zhao,  Igor Ying Zhang,  Xing Zhang,  Yu Zhang,  
 D. Zuev,  A. Aspuru-Guzik,  A. T. Bell,  N. A. Besley,  K. B. Bravaya,  
 B. R. Brooks,  D. Casanova,  Jeng-Da Chai,  Hsing-Ta Chen,  S. Coriani,  
 C. J. Cramer,  A. E. DePrince, III,  R. A. DiStasio Jr.,  A. Dreuw,  
 B. D. Dunietz,  T. R. Furlani,  W. A. Goddard III,  S. Grimme,  
 S. Hammes-Schiffer,  T. Head-Gordon,  W. J. Hehre,  Chao-Ping Hsu,  
 T.-C. Jagau,  Yousung Jung,  A. Klamt,  Jing Kong,  D. S. Lambrecht,  
 Xiangyuan Li,  WanZhen Liang,  N. J. Mayhall,  C. W. McCurdy,  J. B. Neaton,  
 T. Neudecker,  C. Ochsenfeld,  J. A. Parkhill,  R. Peverati,  
 V. A. Rassolov,  Haisheng Ren,  Yihan Shao,  L. V. Slipchenko,  
 R. P. Steele,  J. E. Subotnik,  A. J. W. Thom,  A. Tkatchenko,  
 D. G. Truhlar,  T. Van Voorhis,  Fan Wang,  T. A. Wesolowski,  K. B. Whaley,  
 H. L. Woodcock III,  P. M. Zimmerman,  S. Faraji,  P. M. W. Gill,  
 M. Head-Gordon,  J. M. Herbert,  A. I. Krylov

 Contributors to earlier versions of Q-Chem not listed above: 
 R. D. Adamson,  B. Austin,  R. Baer,  J. Baker,  G. J. O. Beran,  
 K. Brandhorst,  S. T. Brown,  E. F. C. Byrd,  Arup K. Chakraborty,  
 G. K. L. Chan,  Chun-Min Chang,  Yunqing Chen,  C.-L. Cheng,  
 Siu Hung Chien,  D. M. Chipman,  D. L. Crittenden,  H. Dachsel,  
 R. J. Doerksen,  A. D. Dutoi,  R. G. Edgar,  J. Fosso-Tande,  
 L. Fusti-Molnar,  D. Ghosh,  A. Ghysels,  A. Golubeva-Zadorozhnaya,  
 J. Gonthier,  M. S. Gordon,  S. R. Gwaltney,  G. Hawkins,  J. E. Herr,  
 A. Heyden,  S. Hirata,  E. G. Hohenstein,  G. Kedziora,  F. J. Keil,  
 C. Kelley,  Jihan Kim,  R. A. King,  R. Z. Khaliullin,  P. P. Korambath,  
 W. Kurlancheek,  A. Laurent,  A. M. Lee,  M. S. Lee,  S. V. Levchenko,  
 Ching Yeh Lin,  D. Liotard,  E. Livshits,  R. C. Lochan,  I. Lotan,  
 L. A. Martinez-Martinez,  P. E. Maslen,  N. Nair,  D. P. O'Neill,  
 D. Neuhauser,  E. Neuscamman,  C. M. Oana,  R. Olivares-Amaya,  R. Olson,  
 T. M. Perrine,  B. Peters,  P. A. Pieniazek,  A. Prociuk,  Y. M. Rhee,  
 J. Ritchie,  M. A. Rohrdanz,  E. Rosta,  N. J. Russ,  H. F. Schaefer III,  
 M. W. Schmidt,  N. E. Schultz,  S. Sharma,  N. Shenvi,  C. D. Sherrill,  
 A. C. Simmonett,  A. Sodt,  T. Stein,  D. Stuck,  K. S. Thanthiriwatte,  
 V. Vanovschi,  L. Vogt,  Tao Wang,  A. Warshel,  M. A. Watson,  
 C. F. Williams,  Q. Wu,  X. Xu,  Jun Yang,  W. Zhang,  Yan Zhao

   Please cite Q-Chem as follows:
  "Software for the frontiers of quantum chemistry:
   An overview of developments in the Q-Chem 5 package"
   J. Chem. Phys. 155, 084801 (2021)
   https://doi.org/10.1063/5.0055522 (open access)

 Q-Chem 6.2.0 for Intel X86 EM64T Linux

 Parts of Q-Chem use Armadillo 9.900.5 (Nocturnal Misbehaviour).
 http://arma.sourceforge.net/

 Q-Chem begins on Fri Jan 31 01:45:51 2025  

 Host: 
0

     Scratch files written to /data/brussel/103/vsc10365/activedata/TDDFTAnthocyanidines/qchem3275392//
 May224 |scratch|qcdevops|jenkins|workspace|build_RNUM -1
 Processing $rem in /apps/brussel/RL8/skylake/software/Q-Chem/6.2.0/config/preferences:
 Processing $rem in /user/brussel/103/vsc10365/.qchemrc:
 Symmetry turned off for PCM/SM12/SMD calculation

 Checking the input file for inconsistencies... 	...done.

--------------------------------------------------------------
User input:
--------------------------------------------------------------
$comment
TDDFT calculation of delphinidin Q3 structure
nprocs=16
mem=64gb
$end

$molecule
0 1
C   -4.7467443    0.9289039    1.7607128
C   -4.7493008   -0.2883806    1.0944345
C   -3.6562980   -0.6999227    0.2991456
C   -2.5303942    0.2454314    0.2266239
C   -2.6020168    1.4755997    0.9355793
C   -3.6780458    1.8404047    1.7025486
C   -1.3912736   -0.0079295   -0.5016336
C   -0.3331958    0.9053054   -0.5609633
C   -0.4333357    2.1060286    0.1252352
O   -1.5557832    2.3386632    0.8426159
C    0.5291777    3.1946960    0.2067591
C    1.5595139    3.3389128   -0.7372670
C    2.4331467    4.4078882   -0.6470956
C    2.3122333    5.3451361    0.3794988
C    1.2931118    5.1967364    1.3230102
C    0.4061310    4.1403088    1.2381949
O   -5.8063103    1.3158469    2.5247407
H   -5.6078208   -0.9436308    1.1830345
O   -3.6140548   -1.8055874   -0.3239953
H   -3.7124571    2.7812512    2.2312759
H   -1.3022612   -0.9441475   -1.0413271
O    0.8004161    0.6213655   -1.2666175
H    1.6731311    2.6435267   -1.5530670
O    3.4557865    4.6275386   -1.5348092
O    3.1525096    6.4109498    0.5082469
O    1.1583119    6.0984906    2.3473056
H   -0.3707466    4.0551599    1.9830468
H   -6.4961262    0.6359609    2.5055161
H    0.7277559   -0.2624607   -1.6551053
H    3.8072115    6.4040514   -0.2064202
H    3.4622225    3.9382564   -2.2139790
H    1.8525657    6.7709260    2.2828547
$end

$rem
BASIS  =  def2-ma-TZVP
MEM_STATIC  =  2000
MEM_TOTAL  =  64000
METHOD  =  CAM-B3LYP
SOLVENT_METHOD = pcm
SYMMETRY_IGNORE  =  1
CIS_N_ROOTS = 7
CIS_SINGLETS = true
CIS_TRIPLETS = true
CISTR_PRINT = true
RPA = true
PRINT_ORBITALS = true
SCF_PRINT = 1
SCF_FINAL_PRINT = 2
PRINT_GENERAL_BASIS = true
CISTR_PRINT = true
PRINT_RADII_GYRE = true
MULTIPOLE_ORDER = 5
CIS_AMPL_PRINT = 5
CIS_AMPL_ANAL = true
STATE_ANALYSIS = true
$end

$pcm
Theory   CPCM
Method   SWIG
Solver   Inversion
Radii    Bondi
$end

$solvent
Dielectric         78.39
OpticalDielectric  1.777849
$end


--------------------------------------------------------------
 ----------------------------------------------------------------
             Standard Nuclear Orientation (Angstroms)
    I     Atom           X                Y                Z
 ----------------------------------------------------------------
    1      C      -4.7467443000     0.9289039000     1.7607128000
    2      C      -4.7493008000    -0.2883806000     1.0944345000
    3      C      -3.6562980000    -0.6999227000     0.2991456000
    4      C      -2.5303942000     0.2454314000     0.2266239000
    5      C      -2.6020168000     1.4755997000     0.9355793000
    6      C      -3.6780458000     1.8404047000     1.7025486000
    7      C      -1.3912736000    -0.0079295000    -0.5016336000
    8      C      -0.3331958000     0.9053054000    -0.5609633000
    9      C      -0.4333357000     2.1060286000     0.1252352000
   10      O      -1.5557832000     2.3386632000     0.8426159000
   11      C       0.5291777000     3.1946960000     0.2067591000
   12      C       1.5595139000     3.3389128000    -0.7372670000
   13      C       2.4331467000     4.4078882000    -0.6470956000
   14      C       2.3122333000     5.3451361000     0.3794988000
   15      C       1.2931118000     5.1967364000     1.3230102000
   16      C       0.4061310000     4.1403088000     1.2381949000
   17      O      -5.8063103000     1.3158469000     2.5247407000
   18      H      -5.6078208000    -0.9436308000     1.1830345000
   19      O      -3.6140548000    -1.8055874000    -0.3239953000
   20      H      -3.7124571000     2.7812512000     2.2312759000
   21      H      -1.3022612000    -0.9441475000    -1.0413271000
   22      O       0.8004161000     0.6213655000    -1.2666175000
   23      H       1.6731311000     2.6435267000    -1.5530670000
   24      O       3.4557865000     4.6275386000    -1.5348092000
   25      O       3.1525096000     6.4109498000     0.5082469000
   26      O       1.1583119000     6.0984906000     2.3473056000
   27      H      -0.3707466000     4.0551599000     1.9830468000
   28      H      -6.4961262000     0.6359609000     2.5055161000
   29      H       0.7277559000    -0.2624607000    -1.6551053000
   30      H       3.8072115000     6.4040514000    -0.2064202000
   31      H       3.4622225000     3.9382564000    -2.2139790000
   32      H       1.8525657000     6.7709260000     2.2828547000
 ----------------------------------------------------------------
 Nuclear Repulsion Energy =        1701.70557708 hartrees
 There are       78 alpha and       78 beta electrons
 Requested basis set is def2-ma-TZVP
 Basis set in general basis input format:
-----------------------------------------------------------------------
$basis
C    0
S    6    1.000000
   1.35753497E+04    2.22458144E-04 
   2.03523337E+03    1.72327383E-03 
   4.63225624E+02    8.92557153E-03 
   1.31200196E+02    3.57279845E-02 
   4.28530159E+01    1.10762599E-01 
   1.55841858E+01    2.42956276E-01 
S    2    1.000000
   6.20671385E+00    4.14402634E-01 
   2.57648965E+00    2.37449687E-01 
S    1    1.000000
   5.76963394E-01    1.00000000E+00 
S    1    1.000000
   2.29728314E-01    1.00000000E+00 
S    1    1.000000
   9.51644400E-02    1.00000000E+00 
S    1    1.000000
   4.84754014E-02    1.00000000E+00 
P    4    1.000000
   3.46972322E+01    5.33336578E-03 
   7.95826228E+00    3.58641091E-02 
   2.37808269E+00    1.42158733E-01 
   8.14332082E-01    3.42704718E-01 
P    1    1.000000
   2.88875473E-01    4.64458224E-01 
P    1    1.000000
   1.00568237E-01    2.49557899E-01 
D    1    1.000000
   1.09700000E+00    1.00000000E+00 
D    1    1.000000
   3.18000000E-01    1.00000000E+00 
F    1    1.000000
   7.61000000E-01    1.00000000E+00 
****
C    0
S    6    1.000000
   1.35753497E+04    2.22458144E-04 
   2.03523337E+03    1.72327383E-03 
   4.63225624E+02    8.92557153E-03 
   1.31200196E+02    3.57279845E-02 
   4.28530159E+01    1.10762599E-01 
   1.55841858E+01    2.42956276E-01 
S    2    1.000000
   6.20671385E+00    4.14402634E-01 
   2.57648965E+00    2.37449687E-01 
S    1    1.000000
   5.76963394E-01    1.00000000E+00 
S    1    1.000000
   2.29728314E-01    1.00000000E+00 
S    1    1.000000
   9.51644400E-02    1.00000000E+00 
S    1    1.000000
   4.84754014E-02    1.00000000E+00 
P    4    1.000000
   3.46972322E+01    5.33336578E-03 
   7.95826228E+00    3.58641091E-02 
   2.37808269E+00    1.42158733E-01 
   8.14332082E-01    3.42704718E-01 
P    1    1.000000
   2.88875473E-01    4.64458224E-01 
P    1    1.000000
   1.00568237E-01    2.49557899E-01 
D    1    1.000000
   1.09700000E+00    1.00000000E+00 
D    1    1.000000
   3.18000000E-01    1.00000000E+00 
F    1    1.000000
   7.61000000E-01    1.00000000E+00 
****
C    0
S    6    1.000000
   1.35753497E+04    2.22458144E-04 
   2.03523337E+03    1.72327383E-03 
   4.63225624E+02    8.92557153E-03 
   1.31200196E+02    3.57279845E-02 
   4.28530159E+01    1.10762599E-01 
   1.55841858E+01    2.42956276E-01 
S    2    1.000000
   6.20671385E+00    4.14402634E-01 
   2.57648965E+00    2.37449687E-01 
S    1    1.000000
   5.76963394E-01    1.00000000E+00 
S    1    1.000000
   2.29728314E-01    1.00000000E+00 
S    1    1.000000
   9.51644400E-02    1.00000000E+00 
S    1    1.000000
   4.84754014E-02    1.00000000E+00 
P    4    1.000000
   3.46972322E+01    5.33336578E-03 
   7.95826228E+00    3.58641091E-02 
   2.37808269E+00    1.42158733E-01 
   8.14332082E-01    3.42704718E-01 
P    1    1.000000
   2.88875473E-01    4.64458224E-01 
P    1    1.000000
   1.00568237E-01    2.49557899E-01 
D    1    1.000000
   1.09700000E+00    1.00000000E+00 
D    1    1.000000
   3.18000000E-01    1.00000000E+00 
F    1    1.000000
   7.61000000E-01    1.00000000E+00 
****
C    0
S    6    1.000000
   1.35753497E+04    2.22458144E-04 
   2.03523337E+03    1.72327383E-03 
   4.63225624E+02    8.92557153E-03 
   1.31200196E+02    3.57279845E-02 
   4.28530159E+01    1.10762599E-01 
   1.55841858E+01    2.42956276E-01 
S    2    1.000000
   6.20671385E+00    4.14402634E-01 
   2.57648965E+00    2.37449687E-01 
S    1    1.000000
   5.76963394E-01    1.00000000E+00 
S    1    1.000000
   2.29728314E-01    1.00000000E+00 
S    1    1.000000
   9.51644400E-02    1.00000000E+00 
S    1    1.000000
   4.84754014E-02    1.00000000E+00 
P    4    1.000000
   3.46972322E+01    5.33336578E-03 
   7.95826228E+00    3.58641091E-02 
   2.37808269E+00    1.42158733E-01 
   8.14332082E-01    3.42704718E-01 
P    1    1.000000
   2.88875473E-01    4.64458224E-01 
P    1    1.000000
   1.00568237E-01    2.49557899E-01 
D    1    1.000000
   1.09700000E+00    1.00000000E+00 
D    1    1.000000
   3.18000000E-01    1.00000000E+00 
F    1    1.000000
   7.61000000E-01    1.00000000E+00 
****
C    0
S    6    1.000000
   1.35753497E+04    2.22458144E-04 
   2.03523337E+03    1.72327383E-03 
   4.63225624E+02    8.92557153E-03 
   1.31200196E+02    3.57279845E-02 
   4.28530159E+01    1.10762599E-01 
   1.55841858E+01    2.42956276E-01 
S    2    1.000000
   6.20671385E+00    4.14402634E-01 
   2.57648965E+00    2.37449687E-01 
S    1    1.000000
   5.76963394E-01    1.00000000E+00 
S    1    1.000000
   2.29728314E-01    1.00000000E+00 
S    1    1.000000
   9.51644400E-02    1.00000000E+00 
S    1    1.000000
   4.84754014E-02    1.00000000E+00 
P    4    1.000000
   3.46972322E+01    5.33336578E-03 
   7.95826228E+00    3.58641091E-02 
   2.37808269E+00    1.42158733E-01 
   8.14332082E-01    3.42704718E-01 
P    1    1.000000
   2.88875473E-01    4.64458224E-01 
P    1    1.000000
   1.00568237E-01    2.49557899E-01 
D    1    1.000000
   1.09700000E+00    1.00000000E+00 
D    1    1.000000
   3.18000000E-01    1.00000000E+00 
F    1    1.000000
   7.61000000E-01    1.00000000E+00 
****
C    0
S    6    1.000000
   1.35753497E+04    2.22458144E-04 
   2.03523337E+03    1.72327383E-03 
   4.63225624E+02    8.92557153E-03 
   1.31200196E+02    3.57279845E-02 
   4.28530159E+01    1.10762599E-01 
   1.55841858E+01    2.42956276E-01 
S    2    1.000000
   6.20671385E+00    4.14402634E-01 
   2.57648965E+00    2.37449687E-01 
S    1    1.000000
   5.76963394E-01    1.00000000E+00 
S    1    1.000000
   2.29728314E-01    1.00000000E+00 
S    1    1.000000
   9.51644400E-02    1.00000000E+00 
S    1    1.000000
   4.84754014E-02    1.00000000E+00 
P    4    1.000000
   3.46972322E+01    5.33336578E-03 
   7.95826228E+00    3.58641091E-02 
   2.37808269E+00    1.42158733E-01 
   8.14332082E-01    3.42704718E-01 
P    1    1.000000
   2.88875473E-01    4.64458224E-01 
P    1    1.000000
   1.00568237E-01    2.49557899E-01 
D    1    1.000000
   1.09700000E+00    1.00000000E+00 
D    1    1.000000
   3.18000000E-01    1.00000000E+00 
F    1    1.000000
   7.61000000E-01    1.00000000E+00 
****
C    0
S    6    1.000000
   1.35753497E+04    2.22458144E-04 
   2.03523337E+03    1.72327383E-03 
   4.63225624E+02    8.92557153E-03 
   1.31200196E+02    3.57279845E-02 
   4.28530159E+01    1.10762599E-01 
   1.55841858E+01    2.42956276E-01 
S    2    1.000000
   6.20671385E+00    4.14402634E-01 
   2.57648965E+00    2.37449687E-01 
S    1    1.000000
   5.76963394E-01    1.00000000E+00 
S    1    1.000000
   2.29728314E-01    1.00000000E+00 
S    1    1.000000
   9.51644400E-02    1.00000000E+00 
S    1    1.000000
   4.84754014E-02    1.00000000E+00 
P    4    1.000000
   3.46972322E+01    5.33336578E-03 
   7.95826228E+00    3.58641091E-02 
   2.37808269E+00    1.42158733E-01 
   8.14332082E-01    3.42704718E-01 
P    1    1.000000
   2.88875473E-01    4.64458224E-01 
P    1    1.000000
   1.00568237E-01    2.49557899E-01 
D    1    1.000000
   1.09700000E+00    1.00000000E+00 
D    1    1.000000
   3.18000000E-01    1.00000000E+00 
F    1    1.000000
   7.61000000E-01    1.00000000E+00 
****
C    0
S    6    1.000000
   1.35753497E+04    2.22458144E-04 
   2.03523337E+03    1.72327383E-03 
   4.63225624E+02    8.92557153E-03 
   1.31200196E+02    3.57279845E-02 
   4.28530159E+01    1.10762599E-01 
   1.55841858E+01    2.42956276E-01 
S    2    1.000000
   6.20671385E+00    4.14402634E-01 
   2.57648965E+00    2.37449687E-01 
S    1    1.000000
   5.76963394E-01    1.00000000E+00 
S    1    1.000000
   2.29728314E-01    1.00000000E+00 
S    1    1.000000
   9.51644400E-02    1.00000000E+00 
S    1    1.000000
   4.84754014E-02    1.00000000E+00 
P    4    1.000000
   3.46972322E+01    5.33336578E-03 
   7.95826228E+00    3.58641091E-02 
   2.37808269E+00    1.42158733E-01 
   8.14332082E-01    3.42704718E-01 
P    1    1.000000
   2.88875473E-01    4.64458224E-01 
P    1    1.000000
   1.00568237E-01    2.49557899E-01 
D    1    1.000000
   1.09700000E+00    1.00000000E+00 
D    1    1.000000
   3.18000000E-01    1.00000000E+00 
F    1    1.000000
   7.61000000E-01    1.00000000E+00 
****
C    0
S    6    1.000000
   1.35753497E+04    2.22458144E-04 
   2.03523337E+03    1.72327383E-03 
   4.63225624E+02    8.92557153E-03 
   1.31200196E+02    3.57279845E-02 
   4.28530159E+01    1.10762599E-01 
   1.55841858E+01    2.42956276E-01 
S    2    1.000000
   6.20671385E+00    4.14402634E-01 
   2.57648965E+00    2.37449687E-01 
S    1    1.000000
   5.76963394E-01    1.00000000E+00 
S    1    1.000000
   2.29728314E-01    1.00000000E+00 
S    1    1.000000
   9.51644400E-02    1.00000000E+00 
S    1    1.000000
   4.84754014E-02    1.00000000E+00 
P    4    1.000000
   3.46972322E+01    5.33336578E-03 
   7.95826228E+00    3.58641091E-02 
   2.37808269E+00    1.42158733E-01 
   8.14332082E-01    3.42704718E-01 
P    1    1.000000
   2.88875473E-01    4.64458224E-01 
P    1    1.000000
   1.00568237E-01    2.49557899E-01 
D    1    1.000000
   1.09700000E+00    1.00000000E+00 
D    1    1.000000
   3.18000000E-01    1.00000000E+00 
F    1    1.000000
   7.61000000E-01    1.00000000E+00 
****
O    0
S    6    1.000000
   2.70323826E+04    2.17263025E-04 
   4.05238714E+03    1.68386622E-03 
   9.22327227E+02    8.73956163E-03 
   2.61240710E+02    3.52399688E-02 
   8.53546414E+01    1.11535191E-01 
   3.10350352E+01    2.55889540E-01 
S    2    1.000000
   1.22608607E+01    3.97687309E-01 
   4.99870760E+00    2.46278494E-01 
S    1    1.000000
   1.17031082E+00    1.00000000E+00 
S    1    1.000000
   4.64747410E-01    1.00000000E+00 
S    1    1.000000
   1.85045364E-01    1.00000000E+00 
S    1    1.000000
   7.02880263E-02    1.00000000E+00 
P    4    1.000000
   6.32749548E+01    6.06851034E-03 
   1.46270494E+01    4.19125758E-02 
   4.45012235E+00    1.61538411E-01 
   1.52757996E+00    3.57069513E-01 
P    1    1.000000
   5.29351179E-01    4.47942075E-01 
P    1    1.000000
   1.74784213E-01    2.44460697E-01 
P    1    1.000000
   5.11127457E-02    1.00000000E+00 
D    1    1.000000
   2.31400000E+00    1.00000000E+00 
D    1    1.000000
   6.45000000E-01    1.00000000E+00 
F    1    1.000000
   1.42800000E+00    1.00000000E+00 
****
C    0
S    6    1.000000
   1.35753497E+04    2.22458144E-04 
   2.03523337E+03    1.72327383E-03 
   4.63225624E+02    8.92557153E-03 
   1.31200196E+02    3.57279845E-02 
   4.28530159E+01    1.10762599E-01 
   1.55841858E+01    2.42956276E-01 
S    2    1.000000
   6.20671385E+00    4.14402634E-01 
   2.57648965E+00    2.37449687E-01 
S    1    1.000000
   5.76963394E-01    1.00000000E+00 
S    1    1.000000
   2.29728314E-01    1.00000000E+00 
S    1    1.000000
   9.51644400E-02    1.00000000E+00 
S    1    1.000000
   4.84754014E-02    1.00000000E+00 
P    4    1.000000
   3.46972322E+01    5.33336578E-03 
   7.95826228E+00    3.58641091E-02 
   2.37808269E+00    1.42158733E-01 
   8.14332082E-01    3.42704718E-01 
P    1    1.000000
   2.88875473E-01    4.64458224E-01 
P    1    1.000000
   1.00568237E-01    2.49557899E-01 
D    1    1.000000
   1.09700000E+00    1.00000000E+00 
D    1    1.000000
   3.18000000E-01    1.00000000E+00 
F    1    1.000000
   7.61000000E-01    1.00000000E+00 
****
C    0
S    6    1.000000
   1.35753497E+04    2.22458144E-04 
   2.03523337E+03    1.72327383E-03 
   4.63225624E+02    8.92557153E-03 
   1.31200196E+02    3.57279845E-02 
   4.28530159E+01    1.10762599E-01 
   1.55841858E+01    2.42956276E-01 
S    2    1.000000
   6.20671385E+00    4.14402634E-01 
   2.57648965E+00    2.37449687E-01 
S    1    1.000000
   5.76963394E-01    1.00000000E+00 
S    1    1.000000
   2.29728314E-01    1.00000000E+00 
S    1    1.000000
   9.51644400E-02    1.00000000E+00 
S    1    1.000000
   4.84754014E-02    1.00000000E+00 
P    4    1.000000
   3.46972322E+01    5.33336578E-03 
   7.95826228E+00    3.58641091E-02 
   2.37808269E+00    1.42158733E-01 
   8.14332082E-01    3.42704718E-01 
P    1    1.000000
   2.88875473E-01    4.64458224E-01 
P    1    1.000000
   1.00568237E-01    2.49557899E-01 
D    1    1.000000
   1.09700000E+00    1.00000000E+00 
D    1    1.000000
   3.18000000E-01    1.00000000E+00 
F    1    1.000000
   7.61000000E-01    1.00000000E+00 
****
C    0
S    6    1.000000
   1.35753497E+04    2.22458144E-04 
   2.03523337E+03    1.72327383E-03 
   4.63225624E+02    8.92557153E-03 
   1.31200196E+02    3.57279845E-02 
   4.28530159E+01    1.10762599E-01 
   1.55841858E+01    2.42956276E-01 
S    2    1.000000
   6.20671385E+00    4.14402634E-01 
   2.57648965E+00    2.37449687E-01 
S    1    1.000000
   5.76963394E-01    1.00000000E+00 
S    1    1.000000
   2.29728314E-01    1.00000000E+00 
S    1    1.000000
   9.51644400E-02    1.00000000E+00 
S    1    1.000000
   4.84754014E-02    1.00000000E+00 
P    4    1.000000
   3.46972322E+01    5.33336578E-03 
   7.95826228E+00    3.58641091E-02 
   2.37808269E+00    1.42158733E-01 
   8.14332082E-01    3.42704718E-01 
P    1    1.000000
   2.88875473E-01    4.64458224E-01 
P    1    1.000000
   1.00568237E-01    2.49557899E-01 
D    1    1.000000
   1.09700000E+00    1.00000000E+00 
D    1    1.000000
   3.18000000E-01    1.00000000E+00 
F    1    1.000000
   7.61000000E-01    1.00000000E+00 
****
C    0
S    6    1.000000
   1.35753497E+04    2.22458144E-04 
   2.03523337E+03    1.72327383E-03 
   4.63225624E+02    8.92557153E-03 
   1.31200196E+02    3.57279845E-02 
   4.28530159E+01    1.10762599E-01 
   1.55841858E+01    2.42956276E-01 
S    2    1.000000
   6.20671385E+00    4.14402634E-01 
   2.57648965E+00    2.37449687E-01 
S    1    1.000000
   5.76963394E-01    1.00000000E+00 
S    1    1.000000
   2.29728314E-01    1.00000000E+00 
S    1    1.000000
   9.51644400E-02    1.00000000E+00 
S    1    1.000000
   4.84754014E-02    1.00000000E+00 
P    4    1.000000
   3.46972322E+01    5.33336578E-03 
   7.95826228E+00    3.58641091E-02 
   2.37808269E+00    1.42158733E-01 
   8.14332082E-01    3.42704718E-01 
P    1    1.000000
   2.88875473E-01    4.64458224E-01 
P    1    1.000000
   1.00568237E-01    2.49557899E-01 
D    1    1.000000
   1.09700000E+00    1.00000000E+00 
D    1    1.000000
   3.18000000E-01    1.00000000E+00 
F    1    1.000000
   7.61000000E-01    1.00000000E+00 
****
C    0
S    6    1.000000
   1.35753497E+04    2.22458144E-04 
   2.03523337E+03    1.72327383E-03 
   4.63225624E+02    8.92557153E-03 
   1.31200196E+02    3.57279845E-02 
   4.28530159E+01    1.10762599E-01 
   1.55841858E+01    2.42956276E-01 
S    2    1.000000
   6.20671385E+00    4.14402634E-01 
   2.57648965E+00    2.37449687E-01 
S    1    1.000000
   5.76963394E-01    1.00000000E+00 
S    1    1.000000
   2.29728314E-01    1.00000000E+00 
S    1    1.000000
   9.51644400E-02    1.00000000E+00 
S    1    1.000000
   4.84754014E-02    1.00000000E+00 
P    4    1.000000
   3.46972322E+01    5.33336578E-03 
   7.95826228E+00    3.58641091E-02 
   2.37808269E+00    1.42158733E-01 
   8.14332082E-01    3.42704718E-01 
P    1    1.000000
   2.88875473E-01    4.64458224E-01 
P    1    1.000000
   1.00568237E-01    2.49557899E-01 
D    1    1.000000
   1.09700000E+00    1.00000000E+00 
D    1    1.000000
   3.18000000E-01    1.00000000E+00 
F    1    1.000000
   7.61000000E-01    1.00000000E+00 
****
C    0
S    6    1.000000
   1.35753497E+04    2.22458144E-04 
   2.03523337E+03    1.72327383E-03 
   4.63225624E+02    8.92557153E-03 
   1.31200196E+02    3.57279845E-02 
   4.28530159E+01    1.10762599E-01 
   1.55841858E+01    2.42956276E-01 
S    2    1.000000
   6.20671385E+00    4.14402634E-01 
   2.57648965E+00    2.37449687E-01 
S    1    1.000000
   5.76963394E-01    1.00000000E+00 
S    1    1.000000
   2.29728314E-01    1.00000000E+00 
S    1    1.000000
   9.51644400E-02    1.00000000E+00 
S    1    1.000000
   4.84754014E-02    1.00000000E+00 
P    4    1.000000
   3.46972322E+01    5.33336578E-03 
   7.95826228E+00    3.58641091E-02 
   2.37808269E+00    1.42158733E-01 
   8.14332082E-01    3.42704718E-01 
P    1    1.000000
   2.88875473E-01    4.64458224E-01 
P    1    1.000000
   1.00568237E-01    2.49557899E-01 
D    1    1.000000
   1.09700000E+00    1.00000000E+00 
D    1    1.000000
   3.18000000E-01    1.00000000E+00 
F    1    1.000000
   7.61000000E-01    1.00000000E+00 
****
O    0
S    6    1.000000
   2.70323826E+04    2.17263025E-04 
   4.05238714E+03    1.68386622E-03 
   9.22327227E+02    8.73956163E-03 
   2.61240710E+02    3.52399688E-02 
   8.53546414E+01    1.11535191E-01 
   3.10350352E+01    2.55889540E-01 
S    2    1.000000
   1.22608607E+01    3.97687309E-01 
   4.99870760E+00    2.46278494E-01 
S    1    1.000000
   1.17031082E+00    1.00000000E+00 
S    1    1.000000
   4.64747410E-01    1.00000000E+00 
S    1    1.000000
   1.85045364E-01    1.00000000E+00 
S    1    1.000000
   7.02880263E-02    1.00000000E+00 
P    4    1.000000
   6.32749548E+01    6.06851034E-03 
   1.46270494E+01    4.19125758E-02 
   4.45012235E+00    1.61538411E-01 
   1.52757996E+00    3.57069513E-01 
P    1    1.000000
   5.29351179E-01    4.47942075E-01 
P    1    1.000000
   1.74784213E-01    2.44460697E-01 
P    1    1.000000
   5.11127457E-02    1.00000000E+00 
D    1    1.000000
   2.31400000E+00    1.00000000E+00 
D    1    1.000000
   6.45000000E-01    1.00000000E+00 
F    1    1.000000
   1.42800000E+00    1.00000000E+00 
****
H    0
S    3    1.000000
   3.40613410E+01    6.02519780E-03 
   5.12357460E+00    4.50210940E-02 
   1.16466260E+00    2.01897260E-01 
S    1    1.000000
   3.27230410E-01    1.00000000E+00 
S    1    1.000000
   1.03072410E-01    1.00000000E+00 
P    1    1.000000
   8.00000000E-01    1.00000000E+00 
****
O    0
S    6    1.000000
   2.70323826E+04    2.17263025E-04 
   4.05238714E+03    1.68386622E-03 
   9.22327227E+02    8.73956163E-03 
   2.61240710E+02    3.52399688E-02 
   8.53546414E+01    1.11535191E-01 
   3.10350352E+01    2.55889540E-01 
S    2    1.000000
   1.22608607E+01    3.97687309E-01 
   4.99870760E+00    2.46278494E-01 
S    1    1.000000
   1.17031082E+00    1.00000000E+00 
S    1    1.000000
   4.64747410E-01    1.00000000E+00 
S    1    1.000000
   1.85045364E-01    1.00000000E+00 
S    1    1.000000
   7.02880263E-02    1.00000000E+00 
P    4    1.000000
   6.32749548E+01    6.06851034E-03 
   1.46270494E+01    4.19125758E-02 
   4.45012235E+00    1.61538411E-01 
   1.52757996E+00    3.57069513E-01 
P    1    1.000000
   5.29351179E-01    4.47942075E-01 
P    1    1.000000
   1.74784213E-01    2.44460697E-01 
P    1    1.000000
   5.11127457E-02    1.00000000E+00 
D    1    1.000000
   2.31400000E+00    1.00000000E+00 
D    1    1.000000
   6.45000000E-01    1.00000000E+00 
F    1    1.000000
   1.42800000E+00    1.00000000E+00 
****
H    0
S    3    1.000000
   3.40613410E+01    6.02519780E-03 
   5.12357460E+00    4.50210940E-02 
   1.16466260E+00    2.01897260E-01 
S    1    1.000000
   3.27230410E-01    1.00000000E+00 
S    1    1.000000
   1.03072410E-01    1.00000000E+00 
P    1    1.000000
   8.00000000E-01    1.00000000E+00 
****
H    0
S    3    1.000000
   3.40613410E+01    6.02519780E-03 
   5.12357460E+00    4.50210940E-02 
   1.16466260E+00    2.01897260E-01 
S    1    1.000000
   3.27230410E-01    1.00000000E+00 
S    1    1.000000
   1.03072410E-01    1.00000000E+00 
P    1    1.000000
   8.00000000E-01    1.00000000E+00 
****
O    0
S    6    1.000000
   2.70323826E+04    2.17263025E-04 
   4.05238714E+03    1.68386622E-03 
   9.22327227E+02    8.73956163E-03 
   2.61240710E+02    3.52399688E-02 
   8.53546414E+01    1.11535191E-01 
   3.10350352E+01    2.55889540E-01 
S    2    1.000000
   1.22608607E+01    3.97687309E-01 
   4.99870760E+00    2.46278494E-01 
S    1    1.000000
   1.17031082E+00    1.00000000E+00 
S    1    1.000000
   4.64747410E-01    1.00000000E+00 
S    1    1.000000
   1.85045364E-01    1.00000000E+00 
S    1    1.000000
   7.02880263E-02    1.00000000E+00 
P    4    1.000000
   6.32749548E+01    6.06851034E-03 
   1.46270494E+01    4.19125758E-02 
   4.45012235E+00    1.61538411E-01 
   1.52757996E+00    3.57069513E-01 
P    1    1.000000
   5.29351179E-01    4.47942075E-01 
P    1    1.000000
   1.74784213E-01    2.44460697E-01 
P    1    1.000000
   5.11127457E-02    1.00000000E+00 
D    1    1.000000
   2.31400000E+00    1.00000000E+00 
D    1    1.000000
   6.45000000E-01    1.00000000E+00 
F    1    1.000000
   1.42800000E+00    1.00000000E+00 
****
H    0
S    3    1.000000
   3.40613410E+01    6.02519780E-03 
   5.12357460E+00    4.50210940E-02 
   1.16466260E+00    2.01897260E-01 
S    1    1.000000
   3.27230410E-01    1.00000000E+00 
S    1    1.000000
   1.03072410E-01    1.00000000E+00 
P    1    1.000000
   8.00000000E-01    1.00000000E+00 
****
O    0
S    6    1.000000
   2.70323826E+04    2.17263025E-04 
   4.05238714E+03    1.68386622E-03 
   9.22327227E+02    8.73956163E-03 
   2.61240710E+02    3.52399688E-02 
   8.53546414E+01    1.11535191E-01 
   3.10350352E+01    2.55889540E-01 
S    2    1.000000
   1.22608607E+01    3.97687309E-01 
   4.99870760E+00    2.46278494E-01 
S    1    1.000000
   1.17031082E+00    1.00000000E+00 
S    1    1.000000
   4.64747410E-01    1.00000000E+00 
S    1    1.000000
   1.85045364E-01    1.00000000E+00 
S    1    1.000000
   7.02880263E-02    1.00000000E+00 
P    4    1.000000
   6.32749548E+01    6.06851034E-03 
   1.46270494E+01    4.19125758E-02 
   4.45012235E+00    1.61538411E-01 
   1.52757996E+00    3.57069513E-01 
P    1    1.000000
   5.29351179E-01    4.47942075E-01 
P    1    1.000000
   1.74784213E-01    2.44460697E-01 
P    1    1.000000
   5.11127457E-02    1.00000000E+00 
D    1    1.000000
   2.31400000E+00    1.00000000E+00 
D    1    1.000000
   6.45000000E-01    1.00000000E+00 
F    1    1.000000
   1.42800000E+00    1.00000000E+00 
****
O    0
S    6    1.000000
   2.70323826E+04    2.17263025E-04 
   4.05238714E+03    1.68386622E-03 
   9.22327227E+02    8.73956163E-03 
   2.61240710E+02    3.52399688E-02 
   8.53546414E+01    1.11535191E-01 
   3.10350352E+01    2.55889540E-01 
S    2    1.000000
   1.22608607E+01    3.97687309E-01 
   4.99870760E+00    2.46278494E-01 
S    1    1.000000
   1.17031082E+00    1.00000000E+00 
S    1    1.000000
   4.64747410E-01    1.00000000E+00 
S    1    1.000000
   1.85045364E-01    1.00000000E+00 
S    1    1.000000
   7.02880263E-02    1.00000000E+00 
P    4    1.000000
   6.32749548E+01    6.06851034E-03 
   1.46270494E+01    4.19125758E-02 
   4.45012235E+00    1.61538411E-01 
   1.52757996E+00    3.57069513E-01 
P    1    1.000000
   5.29351179E-01    4.47942075E-01 
P    1    1.000000
   1.74784213E-01    2.44460697E-01 
P    1    1.000000
   5.11127457E-02    1.00000000E+00 
D    1    1.000000
   2.31400000E+00    1.00000000E+00 
D    1    1.000000
   6.45000000E-01    1.00000000E+00 
F    1    1.000000
   1.42800000E+00    1.00000000E+00 
****
O    0
S    6    1.000000
   2.70323826E+04    2.17263025E-04 
   4.05238714E+03    1.68386622E-03 
   9.22327227E+02    8.73956163E-03 
   2.61240710E+02    3.52399688E-02 
   8.53546414E+01    1.11535191E-01 
   3.10350352E+01    2.55889540E-01 
S    2    1.000000
   1.22608607E+01    3.97687309E-01 
   4.99870760E+00    2.46278494E-01 
S    1    1.000000
   1.17031082E+00    1.00000000E+00 
S    1    1.000000
   4.64747410E-01    1.00000000E+00 
S    1    1.000000
   1.85045364E-01    1.00000000E+00 
S    1    1.000000
   7.02880263E-02    1.00000000E+00 
P    4    1.000000
   6.32749548E+01    6.06851034E-03 
   1.46270494E+01    4.19125758E-02 
   4.45012235E+00    1.61538411E-01 
   1.52757996E+00    3.57069513E-01 
P    1    1.000000
   5.29351179E-01    4.47942075E-01 
P    1    1.000000
   1.74784213E-01    2.44460697E-01 
P    1    1.000000
   5.11127457E-02    1.00000000E+00 
D    1    1.000000
   2.31400000E+00    1.00000000E+00 
D    1    1.000000
   6.45000000E-01    1.00000000E+00 
F    1    1.000000
   1.42800000E+00    1.00000000E+00 
****
H    0
S    3    1.000000
   3.40613410E+01    6.02519780E-03 
   5.12357460E+00    4.50210940E-02 
   1.16466260E+00    2.01897260E-01 
S    1    1.000000
   3.27230410E-01    1.00000000E+00 
S    1    1.000000
   1.03072410E-01    1.00000000E+00 
P    1    1.000000
   8.00000000E-01    1.00000000E+00 
****
H    0
S    3    1.000000
   3.40613410E+01    6.02519780E-03 
   5.12357460E+00    4.50210940E-02 
   1.16466260E+00    2.01897260E-01 
S    1    1.000000
   3.27230410E-01    1.00000000E+00 
S    1    1.000000
   1.03072410E-01    1.00000000E+00 
P    1    1.000000
   8.00000000E-01    1.00000000E+00 
****
H    0
S    3    1.000000
   3.40613410E+01    6.02519780E-03 
   5.12357460E+00    4.50210940E-02 
   1.16466260E+00    2.01897260E-01 
S    1    1.000000
   3.27230410E-01    1.00000000E+00 
S    1    1.000000
   1.03072410E-01    1.00000000E+00 
P    1    1.000000
   8.00000000E-01    1.00000000E+00 
****
H    0
S    3    1.000000
   3.40613410E+01    6.02519780E-03 
   5.12357460E+00    4.50210940E-02 
   1.16466260E+00    2.01897260E-01 
S    1    1.000000
   3.27230410E-01    1.00000000E+00 
S    1    1.000000
   1.03072410E-01    1.00000000E+00 
P    1    1.000000
   8.00000000E-01    1.00000000E+00 
****
H    0
S    3    1.000000
   3.40613410E+01    6.02519780E-03 
   5.12357460E+00    4.50210940E-02 
   1.16466260E+00    2.01897260E-01 
S    1    1.000000
   3.27230410E-01    1.00000000E+00 
S    1    1.000000
   1.03072410E-01    1.00000000E+00 
P    1    1.000000
   8.00000000E-01    1.00000000E+00 
****
H    0
S    3    1.000000
   3.40613410E+01    6.02519780E-03 
   5.12357460E+00    4.50210940E-02 
   1.16466260E+00    2.01897260E-01 
S    1    1.000000
   3.27230410E-01    1.00000000E+00 
S    1    1.000000
   1.03072410E-01    1.00000000E+00 
P    1    1.000000
   8.00000000E-01    1.00000000E+00 
****
$end
-----------------------------------------------------------------------
 There are 311 shells and 785 basis functions

 Total QAlloc Memory Limit  64000 MB
 Mega-Array Size      1956 MB
 MEM_STATIC part      2000 MB

 User-specified dielectric constants (eps_0 = 78.39, eps_inf = 1.78)
 Using C-PCM dielectric factor f(eps) = (eps-1)/eps = 0.987243
 Static dielectric constant eps = 78.39
 Discretize the solute cavity surface with Lebedev spheres
	Using 110 Lebedev grid points for each H atom
	Using 194 Lebedev grid points for other atoms
	Atomic van der Waals radii (Bondi set) will be scaled by 1.20
 Using smooth SwiG surface discretization
 Remove points where switching function is < 1.0e-08
 Keep 2215 surface tesserae and discard 3153 interior tesserae
 Molecular Surface Area = 307.194 Angst**2

 A cutoff of  1.0D-12 yielded  34323 shell pairs
 There are    205849 function pairs (    261574 Cartesian)
 Smallest overlap matrix eigenvalue = 4.76E-06

 Scale SEOQF with 1.000000e-02/1.000000e-02/1.000000e-01

 Standard Electronic Orientation quadrupole field applied
 Nucleus-field energy     =    -0.0000000091 hartrees
 Guess from superposition of atomic densities
 Warning:  Energy on first SCF cycle will be non-variational
 SAD guess density has 156.000000 electrons

 -----------------------------------------------------------------------
  General SCF calculation program by
  Eric Jon Sundstrom, Paul Horn, Yuezhi Mao, Dmitri Zuev, Alec White,
  David Stuck, Shaama M.S., Shane Yost, Joonho Lee, David Small,
  Daniel Levine, Susi Lehtola, Hugh Burton, Evgeny Epifanovsky,
  Bang C. Huynh
 -----------------------------------------------------------------------
 Exchange:     0.1900 Hartree-Fock + 0.3500 B88 + 0.4600 muB88 + LR-HF
 Correlation:  0.1900 VWN5 + 0.8100 LYP
 Using SG-1 standard quadrature grid
 using 16 threads for integral computing
 -------------------------------------------------------
 OpenMP Integral computing Module                
 Release: version 1.0, May 2013, Q-Chem Inc. Pittsburgh 
 -------------------------------------------------------
 C-PCM solvent model [f = (eps-1)/eps], solve by matrix inversion
 DFT Correlation          Energy =  -6.39226007648633
 DFT Exchange             Energy = -98.73489423426054
 HF Exchange              Energy = -40.21679408849919
 One-Electron             Energy = -4875.52617725964774
 SCRF wf-dependent energy Energy =   0.00000000000000
 Total Coulomb            Energy = 2208.48648542666115
 Nuclear repulsion Energy = 1701.70557707038961
 A restricted SCF calculation will be
 performed using DIIS
 SCF converges when DIIS error is below 1.0e-08
 DFT Correlation          Energy =  -6.39226007648633
 DFT Exchange             Energy = -98.73489423426054
 HF Exchange              Energy = -40.21679408849919
 One-Electron             Energy = -4875.52617725964774
 SCRF wf-dependent energy Energy =   0.00000000000000
 Total Coulomb            Energy = 2208.48648542666115
 ---------------------------------------
  Cycle       Energy         DIIS error
 ---------------------------------------
 DFT Correlation          Energy =  -6.47709921543303
 DFT Exchange             Energy = -100.82563615261832
 HF Exchange              Energy = -38.94436615081753
 One-Electron             Energy = -4895.82714563005447
 SCRF wf-dependent energy Energy =  -0.99036223155895
 Total Coulomb            Energy = 2237.54375285060723
 Nuclear repulsion Energy = 1701.70557707038961
    1   -1110.6780631618      2.08e-02  
 DFT Correlation          Energy =  -6.41388188682128
 DFT Exchange             Energy = -98.93726992341900
 HF Exchange              Energy = -38.41498515460719
 One-Electron             Energy = -4881.49797426871191
 SCRF wf-dependent energy Energy =   0.41137567455144
 Total Coulomb            Energy = 2219.46601461240471
 Nuclear repulsion Energy = 1701.70557707038961
    2   -1103.8152794595      2.33e-03  
 DFT Correlation          Energy =  -6.44285440528230
 DFT Exchange             Energy = -99.86897675945812
 HF Exchange              Energy = -38.69502919377907
 One-Electron             Energy = -4885.88491797935421
 SCRF wf-dependent energy Energy =  -0.98792613458727
 Total Coulomb            Energy = 2226.03773451212601
 Nuclear repulsion Energy = 1701.70557707038961
    3   -1103.6811438762      2.92e-03  
 DFT Correlation          Energy =  -6.44491116869981
 DFT Exchange             Energy = -99.89885741116360
 HF Exchange              Energy = -38.70212890220093
 One-Electron             Energy = -4887.69185372675474
 SCRF wf-dependent energy Energy =  -0.62011371056315
 Total Coulomb            Energy = 2227.50234559371256
 Nuclear repulsion Energy = 1701.70557707038961
    4   -1104.1363928899      5.07e-04  
 DFT Correlation          Energy =  -6.44450284718039
 DFT Exchange             Energy = -99.88827514214883
 HF Exchange              Energy = -38.70011717714747
 One-Electron             Energy = -4887.66094444158352
 SCRF wf-dependent energy Energy =  -0.59588757595270
 Total Coulomb            Energy = 2227.43224400739382
 Nuclear repulsion Energy = 1701.70557707038961
    5   -1104.1499422553      1.89e-04  
 DFT Correlation          Energy =  -6.44430732089268
 DFT Exchange             Energy = -99.88684958593063
 HF Exchange              Energy = -38.70049342605221
 One-Electron             Energy = -4887.46923128829894
 SCRF wf-dependent energy Energy =  -0.63410469022938
 Total Coulomb            Energy = 2227.27726276116664
 Nuclear repulsion Energy = 1701.70557707038961
    6   -1104.1519061062      5.88e-05  
 DFT Correlation          Energy =  -6.44428738637152
 DFT Exchange             Energy = -99.88595080522663
 HF Exchange              Energy = -38.70050342562429
 One-Electron             Energy = -4887.48516553323043
 SCRF wf-dependent energy Energy =  -0.62454043414459
 Total Coulomb            Energy = 2227.28269147617902
 Nuclear repulsion Energy = 1701.70557707038961
    7   -1104.1521464798      1.62e-05  
 DFT Correlation          Energy =  -6.44434055923954
 DFT Exchange             Energy = -99.88719448536114
 HF Exchange              Energy = -38.70094353308147
 One-Electron             Energy = -4887.51731711003504
 SCRF wf-dependent energy Energy =  -0.61952242169900
 Total Coulomb            Energy = 2227.31155075478182
 Nuclear repulsion Energy = 1701.70557707038961
    8   -1104.1521790380      7.19e-06  
 DFT Correlation          Energy =  -6.44433886831863
 DFT Exchange             Energy = -99.88735963186649
 HF Exchange              Energy = -38.70107907598589
 One-Electron             Energy = -4887.52382231381671
 SCRF wf-dependent energy Energy =  -0.61581431228296
 Total Coulomb            Energy = 2227.31464219132477
 Nuclear repulsion Energy = 1701.70557707038961
    9   -1104.1521902842      3.37e-06  
 DFT Correlation          Energy =  -6.44433242971970
 DFT Exchange             Energy = -99.88711461920529
 HF Exchange              Energy = -38.70103607842520
 One-Electron             Energy = -4887.52147788832917
 SCRF wf-dependent energy Energy =  -0.61547518062207
 Total Coulomb            Energy = 2227.31166336072511
 Nuclear repulsion Energy = 1701.70557707038961
   10   -1104.1521949406      1.89e-06  
 DFT Correlation          Energy =  -6.44433734676249
 DFT Exchange             Energy = -99.88728424229147
 HF Exchange              Energy = -38.70108412920557
 One-Electron             Energy = -4887.52595067903803
 SCRF wf-dependent energy Energy =  -0.61428738483733
 Total Coulomb            Energy = 2227.31517075520924
 Nuclear repulsion Energy = 1701.70557707038961
   11   -1104.1521957652      6.53e-07  
 DFT Correlation          Energy =  -6.44433790922583
 DFT Exchange             Energy = -99.88727563117540
 HF Exchange              Energy = -38.70108179383595
 One-Electron             Energy = -4887.52679821967831
 SCRF wf-dependent energy Energy =  -0.61394401064581
 Total Coulomb            Energy = 2227.31566450388345
 Nuclear repulsion Energy = 1701.70557707038961
   12   -1104.1521959565      3.88e-07  
 DFT Correlation          Energy =  -6.44433784049340
 DFT Exchange             Energy = -99.88728164023867
 HF Exchange              Energy = -38.70108255631548
 One-Electron             Energy = -4887.52688979437426
 SCRF wf-dependent energy Energy =  -0.61386672666504
 Total Coulomb            Energy = 2227.31568549309077
 Nuclear repulsion Energy = 1701.70557707038961
   13   -1104.1521959903      1.40e-07  
 DFT Correlation          Energy =  -6.44433780327769
 DFT Exchange             Energy = -99.88727934390003
 HF Exchange              Energy = -38.70108164108688
 One-Electron             Energy = -4887.52695529276025
 SCRF wf-dependent energy Energy =  -0.61383049711071
 Total Coulomb            Energy = 2227.31571151305388
 Nuclear repulsion Energy = 1701.70557707038961
   14   -1104.1521959946      4.38e-08  
 DFT Correlation          Energy =  -6.44433786267251
 DFT Exchange             Energy = -99.88728056877142
 HF Exchange              Energy = -38.70108190935353
 One-Electron             Energy = -4887.52698966102253
 SCRF wf-dependent energy Energy =  -0.61382423960458
 Total Coulomb            Energy = 2227.31574117642822
 Nuclear repulsion Energy = 1701.70557707038961
   15   -1104.1521959947      1.79e-08  
   16   -1104.1521959946      5.39e-09  Convergence criterion met
 ---------------------------------------
 DFT Correlation          Energy =  -6.44433786267251
 DFT Exchange             Energy = -99.88728056877142
 HF Exchange              Energy = -38.70108190935353
 One-Electron             Energy = -4887.52698966102253
 SCRF wf-dependent energy Energy =  -0.61382423960458
 Total Coulomb            Energy = 2227.31574117642822
 Final Alpha MO Eigenvalues
            1           2           3           4           5           6
    1 -19.2997013 -19.2492358 -19.2470438 -19.2444487 -19.2442184 -19.2389855
            7           8           9          10          11          12
    1 -19.1522140 -10.3617466 -10.3469927 -10.3388062 -10.3361582 -10.3259837
           13          14          15          16          17          18
    1 -10.3252351 -10.3238847 -10.3215638 -10.2987919 -10.2837694 -10.2763923
           19          20          21          22          23          24
    1 -10.2607215 -10.2586054 -10.2438395 -10.2330014  -1.2256513  -1.1762811
           25          26          27          28          29          30
    1  -1.1625552  -1.1570886  -1.1526059  -1.1375749  -1.0779295  -0.9664731
           31          32          33          34          35          36
    1  -0.9482671  -0.9233576  -0.8821122  -0.8401551  -0.8341459  -0.8188964
           37          38          39          40          41          42
    1  -0.7684494  -0.7629325  -0.7291071  -0.7160547  -0.6882186  -0.6718581
           43          44          45          46          47          48
    1  -0.6595950  -0.6402515  -0.6313952  -0.6126711  -0.5934156  -0.5883612
           49          50          51          52          53          54
    1  -0.5829646  -0.5729101  -0.5588638  -0.5461266  -0.5364131  -0.5341322
           55          56          57          58          59          60
    1  -0.5111886  -0.5097949  -0.5023721  -0.4979677  -0.4918255  -0.4896464
           61          62          63          64          65          66
    1  -0.4788322  -0.4769111  -0.4654706  -0.4596549  -0.4586671  -0.4534265
           67          68          69          70          71          72
    1  -0.4510665  -0.4442778  -0.4366214  -0.4218576  -0.4167217  -0.3811239
           73          74          75          76          77          78
    1  -0.3631567  -0.3158218  -0.3147763  -0.2951719  -0.2797837  -0.2497854
           79          80          81          82          83          84
    1  -0.0687586   0.0056228   0.0215234   0.0319296   0.0361809   0.0379466
           85          86          87          88          89          90
    1   0.0454597   0.0504540   0.0518898   0.0582348   0.0630416   0.0678717
           91          92          93          94          95          96
    1   0.0744726   0.0788994   0.0838711   0.0884627   0.0898291   0.0958982
           97          98          99         100         101         102
    1   0.1004246   0.1076133   0.1102614   0.1145589   0.1155851   0.1211428
          103         104         105         106         107         108
    1   0.1273552   0.1338329   0.1386906   0.1431261   0.1449380   0.1473747
          109         110         111         112         113         114
    1   0.1485629   0.1529832   0.1583632   0.1648713   0.1693317   0.1753029
          115         116         117         118         119         120
    1   0.1882239   0.1889051   0.1949264   0.1969257   0.2035150   0.2131138
          121         122         123         124         125         126
    1   0.2160300   0.2190937   0.2236557   0.2249626   0.2327000   0.2360813
          127         128         129         130         131         132
    1   0.2368910   0.2400796   0.2438367   0.2474908   0.2558007   0.2585240
          133         134         135         136         137         138
    1   0.2634927   0.2744200   0.2794006   0.2829633   0.2861127   0.2894993
          139         140         141         142         143         144
    1   0.2941137   0.2986209   0.3051609   0.3080620   0.3149371   0.3223114
          145         146         147         148         149         150
    1   0.3234407   0.3261536   0.3315490   0.3322446   0.3406252   0.3412349
          151         152         153         154         155         156
    1   0.3438295   0.3488253   0.3548023   0.3562421   0.3625587   0.3693255
          157         158         159         160         161         162
    1   0.3709179   0.3750860   0.3852228   0.3877981   0.3921927   0.3962959
          163         164         165         166         167         168
    1   0.3986932   0.4022510   0.4070863   0.4106751   0.4246004   0.4275979
          169         170         171         172         173         174
    1   0.4289173   0.4344237   0.4363896   0.4400859   0.4439908   0.4505050
          175         176         177         178         179         180
    1   0.4556009   0.4576741   0.4624764   0.4715341   0.4756117   0.4810257
          181         182         183         184         185         186
    1   0.4817322   0.4848865   0.4889339   0.4980093   0.4998424   0.5031650
          187         188         189         190         191         192
    1   0.5148431   0.5198811   0.5240227   0.5281195   0.5410504   0.5455758
          193         194         195         196         197         198
    1   0.5504279   0.5600985   0.5615230   0.5631337   0.5653457   0.5668933
          199         200         201         202         203         204
    1   0.5742630   0.5811226   0.5888092   0.5971690   0.5984842   0.6044489
          205         206         207         208         209         210
    1   0.6075768   0.6165625   0.6211490   0.6215783   0.6299679   0.6357037
          211         212         213         214         215         216
    1   0.6416691   0.6478719   0.6512793   0.6552806   0.6583065   0.6615150
          217         218         219         220         221         222
    1   0.6688595   0.6749697   0.6802032   0.6833743   0.6851369   0.6901830
          223         224         225         226         227         228
    1   0.7016896   0.7048022   0.7125042   0.7181401   0.7233730   0.7258501
          229         230         231         232         233         234
    1   0.7282179   0.7370645   0.7446902   0.7461931   0.7598939   0.7635237
          235         236         237         238         239         240
    1   0.7729358   0.7776055   0.7815296   0.7880124   0.7902493   0.7969428
          241         242         243         244         245         246
    1   0.7986072   0.8013749   0.8162079   0.8174279   0.8204244   0.8223782
          247         248         249         250         251         252
    1   0.8280751   0.8301384   0.8363272   0.8430171   0.8495373   0.8534244
          253         254         255         256         257         258
    1   0.8559200   0.8702813   0.8779654   0.8813981   0.8877760   0.8881285
          259         260         261         262         263         264
    1   0.9040190   0.9160222   0.9195197   0.9242122   0.9300389   0.9398995
          265         266         267         268         269         270
    1   0.9523395   0.9559150   0.9749311   0.9831319   0.9925787   0.9968997
          271         272         273         274         275         276
    1   1.0150540   1.0299144   1.0380183   1.0436825   1.0602684   1.0667518
          277         278         279         280         281         282
    1   1.0802577   1.0878439   1.0908701   1.0955636   1.1046754   1.1163073
          283         284         285         286         287         288
    1   1.1320183   1.1352289   1.1396240   1.1464062   1.1564524   1.1679299
          289         290         291         292         293         294
    1   1.1744764   1.1788700   1.1842619   1.1865630   1.2001246   1.2140621
          295         296         297         298         299         300
    1   1.2158289   1.2216604   1.2307986   1.2328616   1.2536145   1.2583501
          301         302         303         304         305         306
    1   1.2793102   1.2875509   1.3017900   1.3088049   1.3253320   1.3395754
          307         308         309         310         311         312
    1   1.3410401   1.3511642   1.3592128   1.3640773   1.3691290   1.3866830
          313         314         315         316         317         318
    1   1.3925190   1.4103845   1.4166062   1.4295881   1.4368160   1.4460182
          319         320         321         322         323         324
    1   1.4538455   1.4590452   1.4662563   1.4777284   1.4826595   1.4927551
          325         326         327         328         329         330
    1   1.4986168   1.5167299   1.5206340   1.5269813   1.5290282   1.5465656
          331         332         333         334         335         336
    1   1.5604402   1.5650065   1.5689176   1.5798127   1.5838970   1.5973235
          337         338         339         340         341         342
    1   1.6010836   1.6181481   1.6205278   1.6337789   1.6483562   1.6645895
          343         344         345         346         347         348
    1   1.6699218   1.6764841   1.6842329   1.7003778   1.7028859   1.7098947
          349         350         351         352         353         354
    1   1.7236272   1.7372107   1.7381763   1.7501762   1.7574626   1.7609994
          355         356         357         358         359         360
    1   1.7657140   1.7700330   1.7726585   1.7783629   1.7910014   1.8059764
          361         362         363         364         365         366
    1   1.8182695   1.8264648   1.8349462   1.8405723   1.8549651   1.8642426
          367         368         369         370         371         372
    1   1.8743382   1.8875243   1.9045301   1.9208230   1.9266959   1.9384143
          373         374         375         376         377         378
    1   1.9409521   1.9513247   1.9596979   1.9630320   1.9704586   1.9773018
          379         380         381         382         383         384
    1   1.9834356   1.9997550   2.0091046   2.0223686   2.0346766   2.0409918
          385         386         387         388         389         390
    1   2.0500195   2.0557008   2.0633469   2.0696534   2.0766778   2.0876841
          391         392         393         394         395         396
    1   2.0935222   2.1021159   2.1090066   2.1158160   2.1347793   2.1432927
          397         398         399         400         401         402
    1   2.1546001   2.1624687   2.1688487   2.1776279   2.1887118   2.1905903
          403         404         405         406         407         408
    1   2.1981973   2.2034100   2.2075608   2.2129638   2.2208270   2.2262542
          409         410         411         412         413         414
    1   2.2328836   2.2433958   2.2646014   2.2754176   2.2884404   2.2920766
          415         416         417         418         419         420
    1   2.2992122   2.3088109   2.3160976   2.3245710   2.3412777   2.3503645
          421         422         423         424         425         426
    1   2.3587455   2.3665280   2.3795324   2.3814433   2.3933370   2.3969491
          427         428         429         430         431         432
    1   2.4162393   2.4287144   2.4471862   2.4542642   2.4707228   2.4816563
          433         434         435         436         437         438
    1   2.4992418   2.5107740   2.5384820   2.5433663   2.5540156   2.5574089
          439         440         441         442         443         444
    1   2.5700801   2.5768311   2.5858950   2.5940796   2.6044717   2.6086163
          445         446         447         448         449         450
    1   2.6288300   2.6424153   2.6572645   2.6615442   2.6806844   2.6840136
          451         452         453         454         455         456
    1   2.6889282   2.6981602   2.7017839   2.7099790   2.7149287   2.7230809
          457         458         459         460         461         462
    1   2.7322183   2.7494924   2.7601612   2.7713432   2.7827659   2.7886304
          463         464         465         466         467         468
    1   2.7927165   2.8040599   2.8086339   2.8151984   2.8268862   2.8292469
          469         470         471         472         473         474
    1   2.8488109   2.8604321   2.8644830   2.8698646   2.8768044   2.8825178
          475         476         477         478         479         480
    1   2.8976528   2.9034510   2.9124514   2.9220307   2.9329305   2.9390273
          481         482         483         484         485         486
    1   2.9399375   2.9476187   2.9529733   2.9680372   2.9726489   2.9739588
          487         488         489         490         491         492
    1   2.9849646   2.9897712   3.0018584   3.0065576   3.0133119   3.0187711
          493         494         495         496         497         498
    1   3.0256788   3.0337519   3.0493219   3.0508798   3.0676895   3.0729204
          499         500         501         502         503         504
    1   3.0847618   3.0866181   3.0904934   3.0995416   3.1138727   3.1184919
          505         506         507         508         509         510
    1   3.1279421   3.1371920   3.1381329   3.1580133   3.1627856   3.1678086
          511         512         513         514         515         516
    1   3.1765933   3.1794492   3.1853976   3.1945674   3.2029317   3.2107236
          517         518         519         520         521         522
    1   3.2161886   3.2236788   3.2368073   3.2408819   3.2441452   3.2556321
          523         524         525         526         527         528
    1   3.2625965   3.2735545   3.2779241   3.2870004   3.2897583   3.2950435
          529         530         531         532         533         534
    1   3.3041042   3.3079547   3.3154877   3.3207726   3.3312473   3.3402692
          535         536         537         538         539         540
    1   3.3505028   3.3544882   3.3588083   3.3646033   3.3740221   3.3878335
          541         542         543         544         545         546
    1   3.3894375   3.3929836   3.4067370   3.4153843   3.4196612   3.4311718
          547         548         549         550         551         552
    1   3.4473732   3.4507542   3.4544701   3.4624086   3.4739168   3.4754168
          553         554         555         556         557         558
    1   3.4797255   3.4932253   3.4963462   3.5094846   3.5125054   3.5143937
          559         560         561         562         563         564
    1   3.5264213   3.5302943   3.5370256   3.5399606   3.5456122   3.5606841
          565         566         567         568         569         570
    1   3.5632709   3.5697839   3.5812714   3.5901331   3.5917822   3.6042359
          571         572         573         574         575         576
    1   3.6234117   3.6325763   3.6469005   3.6510350   3.6655678   3.6786009
          577         578         579         580         581         582
    1   3.6839447   3.7009706   3.7078985   3.7109843   3.7250133   3.7437498
          583         584         585         586         587         588
    1   3.7524280   3.7590086   3.7795473   3.7947583   3.8132253   3.8375243
          589         590         591         592         593         594
    1   3.8532302   3.8624332   3.8743143   3.8953694   3.9071251   3.9319938
          595         596         597         598         599         600
    1   3.9618913   3.9732579   3.9751524   3.9843846   4.0099250   4.0221877
          601         602         603         604         605         606
    1   4.0387960   4.0480987   4.0541079   4.0630157   4.0704890   4.0771790
          607         608         609         610         611         612
    1   4.1024854   4.1105258   4.1523444   4.1700869   4.1756462   4.1854382
          613         614         615         616         617         618
    1   4.1921227   4.2038529   4.2158238   4.2237947   4.2410327   4.2637409
          619         620         621         622         623         624
    1   4.2742702   4.2771345   4.2805959   4.2953181   4.2966428   4.2979551
          625         626         627         628         629         630
    1   4.3157589   4.3252148   4.3626002   4.3736867   4.3931532   4.4071834
          631         632         633         634         635         636
    1   4.4326487   4.4431655   4.4801305   4.4975499   4.5005497   4.5140407
          637         638         639         640         641         642
    1   4.5487425   4.5610764   4.5795024   4.5891546   4.6057316   4.6098090
          643         644         645         646         647         648
    1   4.6273088   4.6527249   4.6603215   4.6750688   4.6854957   4.7000090
          649         650         651         652         653         654
    1   4.7494491   4.8012778   4.8137716   4.8432681   4.8534457   4.8667352
          655         656         657         658         659         660
    1   4.9041649   4.9295687   4.9468969   4.9528075   4.9846969   5.0036366
          661         662         663         664         665         666
    1   5.0109736   5.0346457   5.0582962   5.0843877   5.1236032   5.1302830
          667         668         669         670         671         672
    1   5.1532855   5.1933324   5.2197920   5.2596855   5.2677921   5.2938822
          673         674         675         676         677         678
    1   5.3027005   5.3056134   5.3201922   5.3283601   5.3383961   5.3428819
          679         680         681         682         683         684
    1   5.3510413   5.3731385   5.4072722   5.4308527   5.4615845   5.4936516
          685         686         687         688         689         690
    1   5.4984616   5.5202172   5.5231892   5.5273546   5.5362083   5.5439213
          691         692         693         694         695         696
    1   5.5533331   5.5855372   5.5960419   5.6057205   5.6243602   5.6381484
          697         698         699         700         701         702
    1   5.6673931   5.6859295   5.7128063   5.8054875   5.8090811   5.8221891
          703         704         705         706         707         708
    1   5.8401415   5.8450023   5.8810186   5.9006402   6.0050072   6.0091790
          709         710         711         712         713         714
    1   6.0233073   6.0466150   6.0865991   6.1111654   6.1359810   6.1976410
          715         716         717         718         719         720
    1   6.2679821   6.2979173   6.3103259   6.3818204   6.4031706   6.4166396
          721         722         723         724         725         726
    1   6.4405786   6.4460574   6.4677515   6.4709088   6.4732985   6.4773952
          727         728         729         730         731         732
    1   6.4870208   6.4998734   6.5032225   6.5148923   6.6467244   6.6683946
          733         734         735         736         737         738
    1   6.7118977   6.7254119   6.7380066   6.7482152   6.7754489   6.7776472
          739         740         741         742         743         744
    1   6.7858015   6.8552957   6.8815796   6.8980994   6.9137686   6.9191548
          745         746         747         748         749         750
    1   6.9299435   6.9461142   6.9584488   6.9752126   7.0192935   7.0435502
          751         752         753         754         755         756
    1   7.0998304   7.1054620   7.1490216   7.2084948   7.2257838   7.2513014
          757         758         759         760         761         762
    1   7.2986271   7.3796783   7.4029061   7.4164772   7.4971914   7.5318723
          763         764         765         766         767         768
    1   7.5550759  22.4429100  22.5746387  22.7984682  22.8742147  22.8869327
          769         770         771         772         773         774
    1  22.8986391  22.9828613  23.0035304  23.0606291  23.0746052  23.0860960
          775         776         777         778         779         780
    1  23.2210809  23.3636341  23.5922115  23.6809574  43.9816009  44.1070304
          781         782         783         784         785
    1  44.1412056  44.1668357  44.1730871  44.2904559  44.6556201
 SCF time:   CPU 5402.30s  wall 449.00s 
 DFT Correlation          Energy =  -6.44433786267251
 DFT Exchange             Energy = -99.88728056877142
 HF Exchange              Energy = -38.70108190935353
 One-Electron             Energy = -4887.52698966102253
 SCRF wf-dependent energy Energy =  -0.61382423960458
 Total Coulomb            Energy = 2227.31574117642822
 Nuclear repulsion Energy = 1701.70557707038961

************** Final PCM Free Energy Summary **************
 G_electrostatic  =      -0.05086743 hartree =     -31.91979507 kcal/mol
 G_cavitation     =       0.00000000 hartree =       0.00000000 kcal/mol
 G_dispersion     =       0.00000000 hartree =       0.00000000 kcal/mol
 G_repulsion      =       0.00000000 hartree =       0.00000000 kcal/mol
 --------------------------------------------------
 Non-electrostatic Free Energy =       0.00000000 hartree =       0.00000000 kcal/mol
 Total                         =      -0.05086743 hartree =     -31.91979507 kcal/mol
 --------------------------------------------------
 SCF Energy (H0 + V/2)                       =   -1104.15219599 
 Solute Internal Energy (H0)                 =   -1104.10132856 
 Total Free Energy (H0 + V/2 + non-elec)     =   -1104.15219599 hartree
                                             = -692865.96379414 kcal/mol
***********************************************************

 SCF   energy = -1104.15219599
 Total energy = -1104.15219599
 MAX_CIS_SUBSPACE fits in available memory
 Direct TDDFT/TDA calculation will be performed
 Exchange:     0.1900 Hartree-Fock + 0.3500 B88 + 0.4600 muB88 + LR-HF
 Correlation:  0.1900 VWN5 + 0.8100 LYP
 Using SG-1 standard quadrature grid
 Triplet excitation energies requested
 Singlet excitation energies requested
 Adding PCM contribution to the XC response (LR-PCM)
 Optical dielectric constant (eps_inf) =  1.78
 CIS energy converged when residual is below 10e- 6
 ---------------------------------------------------
 Iter    Rts Conv    Rts Left    Ttl Dev     Max Dev
 ---------------------------------------------------
   1         0           7      0.000886    0.000142
   2         0           7      0.000356    0.000060
   3         0           7      0.000268    0.000151
   4         0           7      0.000164    0.000106
   5         1           6      0.000111    0.000080
   6         4           3      0.000073    0.000061
   7         4           3      0.000065    0.000060
   8         6           1      0.000027    0.000024
   9         6           1      0.000008    0.000006
  10         6           1      0.000004    0.000002
  11         7           0      0.000003    0.000001    Roots Converged
 ---------------------------------------------------
 Triplets done: starting singlet calculation
 ---------------------------------------------------
 Iter    Rts Conv    Rts Left    Ttl Dev     Max Dev
 ---------------------------------------------------
  12         0           7      0.001958    0.000449
  13         0           7      0.000526    0.000098
  14         0           7      0.000298    0.000061
  15         0           7      0.000177    0.000062
  16         0           7      0.000095    0.000046
  17         2           5      0.000063    0.000044
  18         3           4      0.000031    0.000021
  19         5           2      0.000019    0.000014
  20         6           1      0.000011    0.000007
  21         6           1      0.000008    0.000004
  22         6           1      0.000007    0.000003
  23         6           1      0.000005    0.000001
  24         7           0      0.000004    0.000001    Roots Converged
 ---------------------------------------------------
 
 ---------------------------------------------------
         TDDFT/TDA Excitation Energies              
 ---------------------------------------------------

 Excited state   1: excitation energy (eV) =       1.5915
 Total energy for state   1:                 -1104.09370781 au
    Multiplicity: Triplet
    Trans. Mom.:  0.0000 X   0.0000 Y   0.0000 Z
    Strength   :     0.0000000000
    D(   75) --> V(    1) amplitude =  0.1640
    D(   77) --> V(    2) amplitude =  0.0858
    D(   78) --> V(    1) amplitude =  0.9639

 Excited state   2: excitation energy (eV) =       2.5474
 Total energy for state   2:                 -1104.05858163 au
    Multiplicity: Singlet
    Trans. Mom.:  1.9226 X   1.7906 Y  -0.0519 Z
    Strength   :     0.4309713913
    D(   77) --> V(    1) amplitude =  0.1603
    D(   78) --> V(    1) amplitude =  0.9675
    D(   78) --> V(    2) amplitude =  0.0824

 Excited state   3: excitation energy (eV) =       2.6573
 Total energy for state   3:                 -1104.05454307 au
    Multiplicity: Triplet
    Trans. Mom.:  0.0000 X   0.0000 Y   0.0000 Z
    Strength   :     0.0000000000
    D(   72) --> V(    1) amplitude =  0.0728
    D(   73) --> V(    1) amplitude = -0.1471
    D(   75) --> V(    1) amplitude = -0.1609
    D(   75) --> V(    2) amplitude = -0.0933
    D(   75) --> V(    8) amplitude =  0.0783
    D(   77) --> V(    1) amplitude =  0.8734
    D(   77) --> V(   11) amplitude = -0.0762
    D(   78) --> V(    2) amplitude =  0.3416

 Excited state   4: excitation energy (eV) =       3.3881
 Total energy for state   4:                 -1104.02768466 au
    Multiplicity: Triplet
    Trans. Mom.:  0.0000 X   0.0000 Y   0.0000 Z
    Strength   :     0.0000000000
    D(   76) --> V(    1) amplitude =  0.9011
    D(   76) --> V(    2) amplitude = -0.3398
    D(   76) --> V(    8) amplitude =  0.1883
    D(   76) --> V(   11) amplitude = -0.0811

 Excited state   5: excitation energy (eV) =       3.4537
 Total energy for state   5:                 -1104.02527309 au
    Multiplicity: Triplet
    Trans. Mom.:  0.0000 X   0.0000 Y   0.0000 Z
    Strength   :     0.0000000000
    D(   71) --> V(    1) amplitude = -0.1178
    D(   74) --> V(    1) amplitude = -0.0794
    D(   75) --> V(    1) amplitude =  0.7568
    D(   75) --> V(   11) amplitude = -0.0845
    D(   76) --> V(    5) amplitude = -0.1093
    D(   77) --> V(    2) amplitude = -0.3786
    D(   77) --> V(    8) amplitude =  0.2079
    D(   78) --> V(    1) amplitude = -0.1097
    D(   78) --> V(    2) amplitude =  0.3140
    D(   78) --> V(   11) amplitude =  0.1692

 Excited state   6: excitation energy (eV) =       3.5258
 Total energy for state   6:                 -1104.02262493 au
    Multiplicity: Triplet
    Trans. Mom.:  0.0000 X   0.0000 Y   0.0000 Z
    Strength   :     0.0000000000
    D(   74) --> V(    1) amplitude =  0.9202
    D(   74) --> V(    2) amplitude =  0.1415
    D(   74) --> V(    8) amplitude = -0.2154
    D(   74) --> V(   11) amplitude = -0.1104
    D(   74) --> V(   29) amplitude =  0.0716
    D(   75) --> V(    1) amplitude =  0.1553
    D(   78) --> V(    2) amplitude = -0.0834

 Excited state   7: excitation energy (eV) =       3.5295
 Total energy for state   7:                 -1104.02248760 au
    Multiplicity: Singlet
    Trans. Mom.: -2.0240 X  -1.4523 Y   0.2861 Z
    Strength   :     0.5436903483
    D(   72) --> V(    1) amplitude =  0.0763
    D(   73) --> V(    1) amplitude = -0.0897
    D(   74) --> V(    1) amplitude =  0.0789
    D(   75) --> V(    1) amplitude = -0.1586
    D(   77) --> V(    1) amplitude =  0.9420
    D(   78) --> V(    1) amplitude = -0.1617
    D(   78) --> V(    2) amplitude =  0.1075

 Excited state   8: excitation energy (eV) =       3.6099
 Total energy for state   8:                 -1104.01953520 au
    Multiplicity: Triplet
    Trans. Mom.:  0.0000 X   0.0000 Y   0.0000 Z
    Strength   :     0.0000000000
    D(   71) --> V(    1) amplitude =  0.0911
    D(   72) --> V(    1) amplitude =  0.0933
    D(   73) --> V(    1) amplitude = -0.0970
    D(   74) --> V(    1) amplitude =  0.1032
    D(   75) --> V(    1) amplitude = -0.1610
    D(   75) --> V(    2) amplitude =  0.1759
    D(   77) --> V(    1) amplitude = -0.3147
    D(   77) --> V(    2) amplitude =  0.2335
    D(   77) --> V(    8) amplitude =  0.0971
    D(   78) --> V(    2) amplitude =  0.7229
    D(   78) --> V(    8) amplitude =  0.3891
    D(   78) --> V(    9) amplitude = -0.1226

 Excited state   9: excitation energy (eV) =       3.7138
 Total energy for state   9:                 -1104.01571483 au
    Multiplicity: Singlet
    Trans. Mom.:  0.1268 X   0.0936 Y  -0.0439 Z
    Strength   :     0.0024344523
    D(   74) --> V(    1) amplitude =  0.9235
    D(   74) --> V(    2) amplitude =  0.1427
    D(   74) --> V(    8) amplitude = -0.1867
    D(   74) --> V(   11) amplitude = -0.0784
    D(   75) --> V(    1) amplitude =  0.2355

 Excited state  10: excitation energy (eV) =       3.9849
 Total energy for state  10:                 -1104.00575233 au
    Multiplicity: Singlet
    Trans. Mom.:  0.3536 X  -0.0345 Y  -0.3830 Z
    Strength   :     0.0266469259
    D(   76) --> V(    1) amplitude =  0.9523
    D(   76) --> V(    2) amplitude = -0.1628
    D(   76) --> V(    8) amplitude =  0.0752
    D(   77) --> V(    5) amplitude =  0.1429
    D(   78) --> V(    5) amplitude = -0.1115

 Excited state  11: excitation energy (eV) =       4.0877
 Total energy for state  11:                 -1104.00197724 au
    Multiplicity: Triplet
    Trans. Mom.:  0.0000 X   0.0000 Y   0.0000 Z
    Strength   :     0.0000000000
    D(   60) --> V(    1) amplitude =  0.1019
    D(   65) --> V(    1) amplitude =  0.0754
    D(   72) --> V(    1) amplitude =  0.5164
    D(   72) --> V(    2) amplitude =  0.0924
    D(   73) --> V(    1) amplitude =  0.6067
    D(   75) --> V(    2) amplitude = -0.2073
    D(   77) --> V(    1) amplitude =  0.1257
    D(   77) --> V(    2) amplitude =  0.2100
    D(   77) --> V(    8) amplitude =  0.1805
    D(   78) --> V(    2) amplitude = -0.1292
    D(   78) --> V(    8) amplitude =  0.2501
    D(   78) --> V(    9) amplitude = -0.0806
    D(   78) --> V(   11) amplitude =  0.1672
    D(   78) --> V(   13) amplitude = -0.0928
    D(   78) --> V(   29) amplitude = -0.0927

 Excited state  12: excitation energy (eV) =       4.4299
 Total energy for state  12:                 -1103.98939886 au
    Multiplicity: Singlet
    Trans. Mom.:  0.7107 X   0.4573 Y  -0.1031 Z
    Strength   :     0.0786623640
    D(   73) --> V(    1) amplitude =  0.0915
    D(   74) --> V(    1) amplitude =  0.1394
    D(   75) --> V(    1) amplitude = -0.5482
    D(   77) --> V(    1) amplitude = -0.1883
    D(   77) --> V(    2) amplitude =  0.2115
    D(   77) --> V(   11) amplitude = -0.0998
    D(   78) --> V(    2) amplitude =  0.7147
    D(   78) --> V(    8) amplitude =  0.1734

 Excited state  13: excitation energy (eV) =       4.8085
 Total energy for state  13:                 -1103.97548789 au
    Multiplicity: Singlet
    Trans. Mom.:  0.9467 X  -0.5169 Y  -0.7494 Z
    Strength   :     0.2032140968
    D(   72) --> V(    1) amplitude =  0.0793
    D(   73) --> V(    1) amplitude =  0.1296
    D(   74) --> V(    1) amplitude = -0.1754
    D(   75) --> V(    1) amplitude =  0.7311
    D(   76) --> V(    5) amplitude = -0.1213
    D(   77) --> V(   11) amplitude = -0.1046
    D(   78) --> V(    2) amplitude =  0.5529
    D(   78) --> V(    8) amplitude =  0.0889
    D(   78) --> V(   11) amplitude = -0.0931

 Excited state  14: excitation energy (eV) =       5.1843
 Total energy for state  14:                 -1103.96167615 au
    Multiplicity: Singlet
    Trans. Mom.:  0.0162 X  -0.0353 Y   0.0023 Z
    Strength   :     0.0001926693
    D(   77) --> V(    3) amplitude = -0.0813
    D(   77) --> V(    4) amplitude = -0.1391
    D(   77) --> V(    6) amplitude =  0.1288
    D(   77) --> V(    9) amplitude = -0.0712
    D(   77) --> V(   15) amplitude = -0.0764
    D(   78) --> V(    3) amplitude =  0.4356
    D(   78) --> V(    4) amplitude = -0.7607
    D(   78) --> V(    5) amplitude =  0.0956
    D(   78) --> V(    6) amplitude =  0.1727
    D(   78) --> V(    7) amplitude = -0.1019
    D(   78) --> V(   10) amplitude =  0.2093
    D(   78) --> V(   12) amplitude =  0.1598
    D(   78) --> V(   15) amplitude = -0.1332
 
 ---------------------------------------------------

 Direct TDDFT calculation will be performed
 Exchange:     0.1900 Hartree-Fock + 0.3500 B88 + 0.4600 muB88 + LR-HF
 Correlation:  0.1900 VWN5 + 0.8100 LYP
 Using SG-1 standard quadrature grid
 ---------------------------------------------------
 Iter    Rts Conv    Rts Left    Ttl Dev     Max Dev
 ---------------------------------------------------
   1         0           7      0.000964    0.000152
[...]
      XZZZ     661.8078   YZZZ    -635.0693   ZZZZ   -1248.2877
    5th-Order Moments (Debye-Ang^4)
       500   19544.6921    410   -9588.4578    320    -754.4449
       230   -8698.9401    140   -7524.0510    050  -60668.5536
       401   -2643.2422    311    1238.2683    221   -2164.8571
       131     972.6622    041   -4669.3807    302    3399.3226
       212   -2234.2106    122   -1363.6836    032   -8338.1687
       203   -3397.6851    113     753.5136    023   -3112.7674
       104    2187.0928    014   -3586.9807    005   -3021.9215
 -----------------------------------------------------------------
 -----------------------------------------------------------------
                 RPA Excited-State Multipoles, State    4   
                  LMN = < X^L Y^M Z^N >
 -----------------------------------------------------------------
    Charge (ESU x 10^10)
                 0.0000
    Dipole Moment (Debye)
         X       7.0479      Y       5.6775      Z      -2.2835
       Tot       9.3339
    Quadrupole Moments (Debye-Ang)
        XX    -105.2952     XY      10.8500     YY    -117.7654
        XZ     -20.8353     YZ     -12.6280     ZZ    -119.6551
    Octopole Moments (Debye-Ang^2)
       XXX     222.3931    XXY    -196.5857    XYY     280.1367
       YYY    -730.5568    XXZ       4.9614    XYZ       6.0230
       YYZ     -88.5121    XZZ     116.6018    YZZ    -296.6989
       ZZZ    -200.5968
    Hexadecapole Moments (Debye-Ang^3)
      XXXX   -4783.9268   XXXY    -823.5799   XXYY   -2203.6772
      XYYY    -399.8756   YYYY   -7383.5304   XXXZ      41.3578
      XXYZ    -382.4121   XYYZ     217.9018   YYYZ    -597.4160
      XXZZ   -1092.0362   XYZZ    -263.4741   YYZZ   -1581.7284
      XZZZ     653.0773   YZZZ    -635.5614   ZZZZ   -1244.9927
    5th-Order Moments (Debye-Ang^4)
       500   19517.8144    410   -9148.2385    320    -557.0238
       230   -8479.4914    140   -7078.9844    050  -59851.9054
       401   -2313.6308    311    1127.0007    221   -2188.2940
       131     971.5744    041   -4662.8896    302    3251.2275
       212   -2180.7830    122   -1333.4274    032   -8290.6230
       203   -3327.6418    113     739.7938    023   -3114.4439
       104    2159.6015    014   -3578.8963    005   -3013.4104
 -----------------------------------------------------------------
 -----------------------------------------------------------------
                 RPA Excited-State Multipoles, State    5   
                  LMN = < X^L Y^M Z^N >
 -----------------------------------------------------------------
    Charge (ESU x 10^10)
                 0.0000
    Dipole Moment (Debye)
         X      14.7322      Y      12.6933      Z      -2.2940
       Tot      19.5811
    Quadrupole Moments (Debye-Ang)
        XX    -125.3008     XY      19.5521     YY     -84.7002
        XZ     -15.8806     YZ      -5.7880     ZZ    -116.2160
    Octopole Moments (Debye-Ang^2)
       XXX     341.2154    XXY    -194.8702    XYY     305.3305
       YYY    -573.5943    XXZ     -30.3365    XYZ       6.0749
       YYZ     -45.8789    XZZ     136.7921    YZZ    -266.6827
       ZZZ    -197.4478
    Hexadecapole Moments (Debye-Ang^3)
      XXXX   -5342.1557   XXXY    -799.3082   XXYY   -2248.2849
      XYYY    -387.4883   YYYY   -6677.3152   XXXZ     170.7632
      XXYZ    -421.4946   XYYZ     222.9222   YYYZ    -337.9241
      XXZZ   -1138.9877   XYZZ    -217.9954   YYZZ   -1422.7459
      XZZZ     685.6426   YZZZ    -592.7186   ZZZZ   -1229.8541
    5th-Order Moments (Debye-Ang^4)
       500   22539.9142    410   -9355.4309    320    -609.0598
       230   -8852.7072    140   -7453.1408    050  -56670.4697
       401   -3220.9248    311    1096.8113    221   -2334.8293
       131    1023.4283    041   -3107.0003    302    3608.8275
       212   -2147.3780    122   -1118.2916    032   -7423.1023
       203   -3467.5508    113     794.8093    023   -2857.4527
       104    2264.9889    014   -3436.7010    005   -2993.2228
 -----------------------------------------------------------------
 -----------------------------------------------------------------
                 RPA Excited-State Multipoles, State    6   
                  LMN = < X^L Y^M Z^N >
 -----------------------------------------------------------------
    Charge (ESU x 10^10)
                 0.0000
    Dipole Moment (Debye)
         X       7.5744      Y       7.7202      Z      -1.3778
       Tot      10.9028
    Quadrupole Moments (Debye-Ang)
        XX     -98.3991     XY      14.9875     YY    -107.2371
        XZ     -22.8922     YZ     -11.1745     ZZ    -119.1446
    Octopole Moments (Debye-Ang^2)
       XXX     197.3947    XXY    -187.5567    XYY     302.5428
       YYY    -670.8078    XXZ      14.8932    XYZ       8.8922
       YYZ     -80.6173    XZZ     115.8224    YZZ    -295.3650
       ZZZ    -198.6488
    Hexadecapole Moments (Debye-Ang^3)
      XXXX   -4638.0789   XXXY    -799.2260   XXYY   -2153.2544
      XYYY    -281.3170   YYYY   -7063.7542   XXXZ      17.0940
      XXYZ    -377.4576   XYYZ     230.1296   YYYZ    -561.8132
      XXZZ   -1088.1502   XYZZ    -261.9925   YYZZ   -1577.2038
      XZZZ     649.9504   YZZZ    -633.9799   ZZZZ   -1244.4493
    5th-Order Moments (Debye-Ang^4)
       500   18880.2299    410   -9163.7609    320    -450.9192
       230   -8192.2876    140   -6403.2774    050  -58087.7938
       401   -2198.5135    311    1184.0217    221   -2137.5948
       131    1045.0958    041   -4494.8639    302    3241.8012
       212   -2193.5201    122   -1334.1913    032   -8278.3698
       203   -3320.4201    113     748.4653    023   -3105.7916
       104    2163.4256    014   -3578.7256    005   -3009.0984
 -----------------------------------------------------------------
 -----------------------------------------------------------------
                 RPA Excited-State Multipoles, State    7   
                  LMN = < X^L Y^M Z^N >
 -----------------------------------------------------------------
    Charge (ESU x 10^10)
                 0.0000
    Dipole Moment (Debye)
         X       6.4139      Y       3.8385      Z      -2.8386
       Tot       7.9957
    Quadrupole Moments (Debye-Ang)
        XX    -113.3768     XY       7.4435     YY    -122.8247
        XZ     -17.4040     YZ     -10.6038     ZZ    -119.8899
    Octopole Moments (Debye-Ang^2)
       XXX     258.7693    XXY    -216.2935    XYY     242.2148
       YYY    -780.4121    XXZ     -13.4621    XYZ       0.7453
       YYZ     -85.8749    XZZ     119.0744    YZZ    -295.8494
       ZZZ    -201.6930
    Hexadecapole Moments (Debye-Ang^3)
      XXXX   -5135.6738   XXXY    -850.6822   XXYY   -2249.4823
      XYYY    -556.9315   YYYY   -7673.1281   XXXZ     159.6661
      XXYZ    -360.7383   XYYZ     213.8335   YYYZ    -592.1847
      XXZZ   -1127.6382   XYZZ    -276.6383   YYZZ   -1587.9517
      XZZZ     666.0992   YZZZ    -630.2043   ZZZZ   -1247.8306
    5th-Order Moments (Debye-Ang^4)
       500   21455.5235    410   -9450.7325    320    -940.9493
       230   -8940.8549    140   -8059.9861    050  -61763.7196
       401   -2962.7136    311    1101.6608    221   -2168.9858
       131     931.2229    041   -4717.5099    302    3448.4914
       212   -2192.6526    122   -1384.9331    032   -8356.6242
       203   -3412.7237    113     728.3133    023   -3114.7810
       104    2186.4888    014   -3576.8860    005   -3025.0425
 -----------------------------------------------------------------
 -----------------------------------------------------------------
                 RPA Excited-State Multipoles, State    8   
                  LMN = < X^L Y^M Z^N >
 -----------------------------------------------------------------
    Charge (ESU x 10^10)
                 0.0000
    Dipole Moment (Debye)
         X       0.9009      Y      -4.7387      Z      -4.5929
       Tot       6.6605
    Quadrupole Moments (Debye-Ang)
        XX     -96.5793     XY      25.6768     YY    -128.7083
        XZ     -10.4338     YZ     -11.7278     ZZ    -123.7803
    Octopole Moments (Debye-Ang^2)
       XXX     187.2220    XXY    -309.3564    XYY     202.3730
       YYY    -857.0659    XXZ     -43.4749    XYZ       2.9695
       YYZ     -96.5322    XZZ     129.9264    YZZ    -303.6565
       ZZZ    -208.0815
    Hexadecapole Moments (Debye-Ang^3)
      XXXX   -4908.4892   XXXY    -528.9904   XXYY   -2208.0354
      XYYY    -567.5522   YYYY   -7929.6805   XXXZ     282.8891
      XXYZ    -383.5766   XYYZ     230.4875   YYYZ    -618.5116
      XXZZ   -1176.3210   XYZZ    -259.1375   YYZZ   -1604.5426
      XZZZ     692.4763   YZZZ    -640.4337   ZZZZ   -1267.7288
    5th-Order Moments (Debye-Ang^4)
       500   20547.9964    410  -10991.3323    320   -1427.2731
       230   -9549.4850    140   -8716.1121    050  -63413.8794
       401   -3510.3975    311    1204.1835    221   -2271.7806
       131     905.3794    041   -4883.2154    302    3654.0082
       212   -2282.8373    122   -1378.8805    032   -8430.7210
       203   -3528.4569    113     760.4549    023   -3142.6694
       104    2252.5028    014   -3606.8636    005   -3062.6602
 -----------------------------------------------------------------
 -----------------------------------------------------------------
                 RPA Excited-State Multipoles, State    9   
                  LMN = < X^L Y^M Z^N >
 -----------------------------------------------------------------
    Charge (ESU x 10^10)
                 0.0000
    Dipole Moment (Debye)
         X       0.2192      Y      -5.3719      Z      -4.5706
       Tot       7.0566
    Quadrupole Moments (Debye-Ang)
        XX     -93.6995     XY      26.7596     YY    -129.4570
        XZ     -10.5453     YZ     -11.8226     ZZ    -123.9325
    Octopole Moments (Debye-Ang^2)
       XXX     173.3806    XXY    -314.6621    XYY     200.1466
       YYY    -862.0774    XXZ     -42.8157    XYZ       3.1330
       YYZ     -96.8956    XZZ     129.8286    YZZ    -304.0256
       ZZZ    -207.8673
    Hexadecapole Moments (Debye-Ang^3)
      XXXX   -4849.8535   XXXY    -514.2455   XXYY   -2207.1596
      XYYY    -570.5287   YYYY   -7948.5606   XXXZ     279.0664
      XXYZ    -383.9043   XYYZ     231.2781   YYYZ    -618.9138
      XXZZ   -1175.2546   XYZZ    -258.7615   YYZZ   -1605.4380
      XZZZ     691.6557   YZZZ    -640.7847   ZZZZ   -1268.3845
    5th-Order Moments (Debye-Ang^4)
       500   20270.9386    410  -11060.2373    320   -1457.0165
       230   -9581.8965    140   -8754.7496    050  -63513.7904
       401   -3487.5870    311    1205.0002    221   -2274.1856
       131     905.0064    041   -4886.4693    302    3645.6507
       212   -2285.1026    122   -1379.1731    032   -8433.3435
       203   -3524.1925    113     761.7422    023   -3142.5998
       104    2252.8425    014   -3607.4209    005   -3060.9664
 -----------------------------------------------------------------
 -----------------------------------------------------------------
                 RPA Excited-State Multipoles, State   10   
                  LMN = < X^L Y^M Z^N >
 -----------------------------------------------------------------
    Charge (ESU x 10^10)
                 0.0000
    Dipole Moment (Debye)
         X      17.4609      Y      15.3498      Z      -2.3613
       Tot      23.3682
    Quadrupole Moments (Debye-Ang)
        XX    -127.2807     XY      25.5429     YY     -72.2583
        XZ     -15.4189     YZ      -5.7258     ZZ    -116.2607
    Octopole Moments (Debye-Ang^2)
       XXX     367.4437    XXY    -183.7413    XYY     333.4984
       YYY    -509.6486    XXZ     -35.3354    XYZ       6.2198
       YYZ     -44.1105    XZZ     140.7542    YZZ    -263.7488
       ZZZ    -197.8058
    Hexadecapole Moments (Debye-Ang^3)
      XXXX   -5394.2418   XXXY    -748.0573   XXYY   -2186.6226
      XYYY    -251.6661   YYYY   -6349.9780   XXXZ     187.3138
      XXYZ    -430.3808   XYYZ     221.2964   YYYZ    -325.8893
      XXZZ   -1146.4505   XYZZ    -210.1989   YYZZ   -1407.9070
      XZZZ     688.5681   YZZZ    -592.2485   ZZZZ   -1230.7402
    5th-Order Moments (Debye-Ang^4)
       500   22989.0789    410   -9282.8037    320    -369.1966
       230   -8486.3680    140   -6712.3710    050  -54897.4528
       401   -3336.5540    311    1109.0077    221   -2353.6996
       131    1020.5095    041   -3030.4162    302    3669.4409
       212   -2141.4780    122   -1087.4255    032   -7347.8025
       203   -3491.5467    113     796.1755    023   -2850.2779
       104    2282.1038    014   -3427.2602    005   -2995.7667
 -----------------------------------------------------------------
 -----------------------------------------------------------------
                 RPA Excited-State Multipoles, State   11   
                  LMN = < X^L Y^M Z^N >
 -----------------------------------------------------------------
    Charge (ESU x 10^10)
                 0.0000
    Dipole Moment (Debye)
         X       8.4216      Y       4.2282      Z      -3.6490
       Tot      10.1053
    Quadrupole Moments (Debye-Ang)
        XX    -122.2334     XY       6.8503     YY    -125.8841
        XZ     -15.5915     YZ     -12.4630     ZZ    -120.7420
    Octopole Moments (Debye-Ang^2)
       XXX     298.2876    XXY    -214.7248    XYY     255.4124
       YYY    -778.8880    XXZ     -21.6755    XYZ       7.5125
       YYZ     -87.7474    XZZ     124.9908    YZZ    -298.0376
       ZZZ    -205.7815
    Hexadecapole Moments (Debye-Ang^3)
      XXXX   -5277.4777   XXXY    -836.1974   XXYY   -2285.2277
      XYYY    -539.2032   YYYY   -7667.7455   XXXZ     187.7000
      XXYZ    -388.6975   XYYZ     223.0095   YYYZ    -596.2711
      XXZZ   -1147.9898   XYZZ    -265.3305   YYZZ   -1592.3981
      XZZZ     677.3621   YZZZ    -637.9008   ZZZZ   -1254.9713
    5th-Order Moments (Debye-Ang^4)
       500   21946.7466    410   -9522.8991    320    -752.5792
       230   -8920.4045    140   -7906.3638    050  -61598.1696
       401   -3063.4910    311    1213.9976    221   -2200.5155
       131     968.2325    041   -4702.8009    302    3528.8376
       212   -2231.3539    122   -1357.8568    032   -8356.9274
       203   -3454.4004    113     756.4733    023   -3123.2000
       104    2217.9224    014   -3591.1167    005   -3049.4933
 -----------------------------------------------------------------
 -----------------------------------------------------------------
                 RPA Excited-State Multipoles, State   12   
                  LMN = < X^L Y^M Z^N >
 -----------------------------------------------------------------
    Charge (ESU x 10^10)
                 0.0000
    Dipole Moment (Debye)
         X       6.5879      Y       5.5182      Z      -2.0438
       Tot       8.8333
    Quadrupole Moments (Debye-Ang)
        XX    -108.3041     XY       9.9222     YY    -114.2730
        XZ     -19.1949     YZ      -9.4128     ZZ    -119.3239
    Octopole Moments (Debye-Ang^2)
       XXX     251.9876    XXY    -197.2691    XYY     266.5422
       YYY    -724.7947    XXZ      -6.2861    XYZ       0.4737
       YYZ     -79.9370    XZZ     117.8789    YZZ    -293.0963
       ZZZ    -199.4376
    Hexadecapole Moments (Debye-Ang^3)
      XXXX   -5041.0550   XXXY    -833.2482   XXYY   -2174.7802
      XYYY    -418.4738   YYYY   -7342.1063   XXXZ     127.6600
      XXYZ    -357.0208   XYYZ     216.1553   YYYZ    -559.3294
      XXZZ   -1115.0467   XYZZ    -273.5251   YYZZ   -1572.0600
      XZZZ     660.7532   YZZZ    -624.9979   ZZZZ   -1244.3541
    5th-Order Moments (Debye-Ang^4)
       500   21158.6073    410   -9246.6339    320    -735.3407
       230   -8500.8633    140   -7198.3924    050  -59715.3697
       401   -2828.1284    311    1087.8631    221   -2143.8016
       131     975.1058    041   -4502.0386    302    3414.5838
       212   -2165.5753    122   -1357.0719    032   -8259.7678
       203   -3391.1552    113     724.4528    023   -3087.8136
       104    2179.9989    014   -3560.8459    005   -3012.9246
 -----------------------------------------------------------------
 -----------------------------------------------------------------
                 RPA Excited-State Multipoles, State   13   
                  LMN = < X^L Y^M Z^N >
 -----------------------------------------------------------------
    Charge (ESU x 10^10)
                 0.0000
    Dipole Moment (Debye)
         X       8.2525      Y       7.2110      Z      -2.0228
       Tot      11.1442
    Quadrupole Moments (Debye-Ang)
        XX    -104.5374     XY      15.4007     YY    -105.8609
        XZ     -20.4677     YZ      -9.8051     ZZ    -118.8912
    Octopole Moments (Debye-Ang^2)
       XXX     235.9886    XXY    -184.3876    XYY     299.5575
       YYY    -666.4184    XXZ       4.5158    XYZ       3.9655
       YYZ     -76.5644    XZZ     116.9112    YZZ    -291.2024
       ZZZ    -198.2908
    Hexadecapole Moments (Debye-Ang^3)
      XXXX   -4833.9438   XXXY    -811.8198   XXYY   -2125.0811
      XYYY    -261.4297   YYYY   -6995.5793   XXXZ      50.3052
      XXYZ    -358.2258   XYYZ     229.3901   YYYZ    -528.6634
      XXZZ   -1086.3670   XYZZ    -265.2099   YYZZ   -1557.7508
      XZZZ     650.6925   YZZZ    -623.9800   ZZZZ   -1240.3414
    5th-Order Moments (Debye-Ang^4)
       500   19994.9692    410   -8967.7485    320    -473.9065
       230   -8131.7852    140   -6298.0947    050  -57585.6660
       401   -2352.8442    311    1052.2350    221   -2143.5629
       131    1048.6145    041   -4274.9257    302    3242.6179
       212   -2137.6229    122   -1311.9212    032   -8161.0742
       203   -3314.6177    113     729.7867    023   -3067.4519
       104    2158.9411    014   -3550.2242    005   -2999.1324
 -----------------------------------------------------------------
 -----------------------------------------------------------------
                 RPA Excited-State Multipoles, State   14   
                  LMN = < X^L Y^M Z^N >
 -----------------------------------------------------------------
    Charge (ESU x 10^10)
                 0.0000
    Dipole Moment (Debye)
         X       6.6465      Y       4.7964      Z      -2.3784
       Tot       8.5346
    Quadrupole Moments (Debye-Ang)
        XX    -125.2172     XY       7.4521     YY    -134.5749
        XZ     -20.6628     YZ      -8.6947     ZZ    -135.5888
    Octopole Moments (Debye-Ang^2)
       XXX     336.4246    XXY    -228.7566    XYY     272.9830
       YYY    -801.4576    XXZ      -1.6463    XYZ      -4.7422
       YYZ     -83.0718    XZZ     150.0032    YZZ    -306.2839
       ZZZ    -219.3260
    Hexadecapole Moments (Debye-Ang^3)
      XXXX   -5827.5016   XXXY    -803.1131   XXYY   -2421.2327
      XYYY    -544.5366   YYYY   -7972.8340   XXXZ     161.4290
      XXYZ    -348.2645   XYYZ     214.8220   YYYZ    -599.9032
      XXZZ   -1291.5327   XYZZ    -284.0896   YYZZ   -1680.8229
      XZZZ     734.7435   YZZZ    -650.0784   ZZZZ   -1458.2031
    5th-Order Moments (Debye-Ang^4)
       500   26221.7353    410  -10098.7734    320    -311.0780
       230   -9213.1256    140   -7676.4659    050  -63025.5876
       401   -3254.4475    311    1154.1702    221   -2170.9869
       131     968.7949    041   -4791.4211    302    4208.2616
       212   -2266.0918    122   -1297.8134    032   -8627.4851
       203   -3730.5781    113     771.0547    023   -3204.1738
       104    2672.7213    014   -3768.3935    005   -3431.7427
 -----------------------------------------------------------------
 Total job time:  4223.77s(wall), 58966.72s(cpu) 
 Fri Jan 31 02:56:14 2025

        *************************************************************
        *                                                           *
        *  Thank you very much for using Q-Chem.  Have a nice day.  *
        *                                                           *
        *************************************************************


