
Running Job 1 of 1 Delphinidin_Q1_tddft_full.in
qchem Delphinidin_Q1_tddft_full.in_1882082.0 /data/brussel/103/vsc10365/activedata/TDDFTAnthocyanidines/qchem1882082/ 1
/apps/brussel/RL8/skylake/software/Q-Chem/6.2.0/exe/qcprog.exe_s Delphinidin_Q1_tddft_full.in_1882082.0 /data/brussel/103/vsc10365/activedata/TDDFTAnthocyanidines/qchem1882082/
                  Welcome to Q-Chem
     A Quantum Leap Into The Future Of Chemistry


 Q-Chem 6.2, Q-Chem, Inc., Pleasanton, CA (2024)

 License issued to: SRG Prof. Dr. Frank De Proft, Vrije Universiteit Brussel

 E. Epifanovsky,  A. T. B. Gilbert,  Xintian Feng,  Joonho Lee,  Yuezhi Mao,  
 N. Mardirossian,  P. Pokhilko,  A. White,  M. Wormit,  M. P. Coons,  
 A. L. Dempwolff,  Zhengting Gan,  D. Hait,  P. R. Horn,  L. D. Jacobson,  
 I. Kaliman,  J. Kussmann,  A. W. Lange,  Ka Un Lao,  D. S. Levine,  Jie Liu,  
 S. C. McKenzie,  A. F. Morrison,  K. D. Nanda,  F. Plasser,  D. R. Rehn,  
 M. L. Vidal,  Zhi-Qiang You,  Ying Zhu,  Huseyin Aksu,  B. Alam,  
 B. Albrecht,  A. Aldossary,  E. Alguire,  J. H. Andersen,  
 J. E. Arias-Martinez,  V. Athavale,  D. Barton,  K. Begam,  A. Behn,  
 N. Bellonzi,  Y. A. Bernard,  E. J. Berquist,  H. Burton,  A. Carreras,  
 K. Carter-Fenk,  Mathew Chow,  Romit Chakraborty,  Chandrima Chakravarty,  
 Junhan Chen,  A. D. Chien,  K. D. Closser,  V. Cofer-Shabica,  L. Cunha,  
 S. Dasgupta,  Jia Deng,  Joseph Dickinson,  M. de Wergifosse,  
 M. Diedenhofen,  Hainam Do,  Wenjie Dou,  S. Ehlert,  Po-Tung Fang,  
 S. Fatehi,  Qingguo Feng,  Jonathan Fetherolf,  T. Friedhoff,  
 Thomas Froitzheim,  Sarai Folkestad,  B. Ganoe,  J. Gayvert,  Qinghui Ge,  
 G. Gidofalvi,  M. Gimferrer,  M. Goldey,  Montgomery Gray,  J. Gomes,  
 C. Gonzalez-Espinoza,  S. Gulania,  A. Gunina,  J. A. Gyamfi,  
 M. W. D. Hanson-Heine,  P. H. P. Harbach,  A. W. Hauser,  M. F. Herbst,  
 M. Hernandez Vera,  M. Hodecker,  Z. C. Holden,  S. Houck,  Xunkun Huang,  
 Kerwin Hui,  B. C. Huynh,  K. Ikeda,  M. Ivanov,  Nayanthara K. Jayadev,  
 Hyunjun Ji,  Zuxin Jin,  Hanjie Jiang,  Subrata Jana,  B. Kaduk,  
 S. Kaehler,  R. Kang,  K. Khistyaev,  Jaehoon Kim,  Yongbin Kim,  
 P. Klunzinger,  Z. Koczor-Benda,  Joong Hoon Koh,  D. Kosenkov,  
 Saikiran Kotaru,  L. Koulias,  T. Kowalczyk,  C. M. Krauter,  K. Kue,  
 A. Kunitsa,  T. Kus,  A. Landau,  K. V. Lawler,  D. Lefrancois,  S. Lehtola,  
 Rain Li,  Shaozhi Li,  Tao E. Li,  Yi-Pei Li,  Jiashu Liang,  M. Liebenthal,  
 Hung-Hsuan Lin,  You-Sheng Lin,  Fenglai Liu,  Kuan-Yu Liu,  Xiao Liu,  
 M. Loipersberger,  A. Luenser,  C. Malbon,  Aniket Mandal,  Manisha,  
 A. Manjanath,  P. Manohar,  E. Mansoor,  S. F. Manzer,  Shan-Ping Mao,  
 A. V. Marenich,  T. Markovich,  S. Mason,  F. Matz,  S. A. Maurer,  
 Samuel May,  Alexandra McIsaac,  P. F. McLaughlin,  M. F. S. J. Menger,  
 J.-M. Mewes,  S. A. Mewes,  P. Morgante,  Mohammad Mostafanejad,  
 Madhubani Mukherjee,  J. W. Mullinax,  Quyen Nguyen,  Avik Kumar Ojha,  
 K. J. Oosterbaan,  Eno Paenurk,  Xiaoliang Pan,  G. Paran,  V. Parravicini,  
 Alexander C. Paul,  Suranjan K. Paul,  F. Pavosevic,  Zheng Pei,  S. Prager,  
 E. I. Proynov,  E. Ramos,  B. Rana,  A. E. Rask,  A. Rettig,  R. M. Richard,  
 F. Rob,  E. Rossomme,  T. Scheele,  M. Scheurer,  M. Schneider,  
 P. E. Schneider,  Tim K. Schramm,  N. Sergueev,  S. M. Sharada,  
 Hengyuan Shen,  W. Skomorowski,  D. W. Small,  C. J. Stein,  
 Alistair J. Sterling,  Yingli Su,  Yu-Chuan Su,  E. J. Sundstrom,  
 J. Talbot,  Zhen Tao,  J. Thirman,  Hung-Yi Tsai,  T. Tsuchimochi,  
 N. M. Tubman,  C. Utku,  S. P. Veccham,  O. Vydrov,  Rahel Weiss,  
 J. Wenzel,  Jonathan Wong,  J. Witte,  H. Wu,  Yanze Wu,  A. Yamada,  
 Chou-Hsun Yang,  Kun Yao,  S. Yeganeh,  S. R. Yost,  Qi Yu,  A. Zech,  
 F. Zeller,  Chongxiao Zhao,  Igor Ying Zhang,  Xing Zhang,  Yu Zhang,  
 D. Zuev,  A. Aspuru-Guzik,  A. T. Bell,  N. A. Besley,  K. B. Bravaya,  
 B. R. Brooks,  D. Casanova,  Jeng-Da Chai,  Hsing-Ta Chen,  S. Coriani,  
 C. J. Cramer,  A. E. DePrince, III,  R. A. DiStasio Jr.,  A. Dreuw,  
 B. D. Dunietz,  T. R. Furlani,  W. A. Goddard III,  S. Grimme,  
 S. Hammes-Schiffer,  T. Head-Gordon,  W. J. Hehre,  Chao-Ping Hsu,  
 T.-C. Jagau,  Yousung Jung,  A. Klamt,  Jing Kong,  D. S. Lambrecht,  
 Xiangyuan Li,  WanZhen Liang,  N. J. Mayhall,  C. W. McCurdy,  J. B. Neaton,  
 T. Neudecker,  C. Ochsenfeld,  J. A. Parkhill,  R. Peverati,  
 V. A. Rassolov,  Haisheng Ren,  Yihan Shao,  L. V. Slipchenko,  
 R. P. Steele,  J. E. Subotnik,  A. J. W. Thom,  A. Tkatchenko,  
 D. G. Truhlar,  T. Van Voorhis,  Fan Wang,  T. A. Wesolowski,  K. B. Whaley,  
 H. L. Woodcock III,  P. M. Zimmerman,  S. Faraji,  P. M. W. Gill,  
 M. Head-Gordon,  J. M. Herbert,  A. I. Krylov

 Contributors to earlier versions of Q-Chem not listed above: 
 R. D. Adamson,  B. Austin,  R. Baer,  J. Baker,  G. J. O. Beran,  
 K. Brandhorst,  S. T. Brown,  E. F. C. Byrd,  Arup K. Chakraborty,  
 G. K. L. Chan,  Chun-Min Chang,  Yunqing Chen,  C.-L. Cheng,  
 Siu Hung Chien,  D. M. Chipman,  D. L. Crittenden,  H. Dachsel,  
 R. J. Doerksen,  A. D. Dutoi,  R. G. Edgar,  J. Fosso-Tande,  
 L. Fusti-Molnar,  D. Ghosh,  A. Ghysels,  A. Golubeva-Zadorozhnaya,  
 J. Gonthier,  M. S. Gordon,  S. R. Gwaltney,  G. Hawkins,  J. E. Herr,  
 A. Heyden,  S. Hirata,  E. G. Hohenstein,  G. Kedziora,  F. J. Keil,  
 C. Kelley,  Jihan Kim,  R. A. King,  R. Z. Khaliullin,  P. P. Korambath,  
 W. Kurlancheek,  A. Laurent,  A. M. Lee,  M. S. Lee,  S. V. Levchenko,  
 Ching Yeh Lin,  D. Liotard,  E. Livshits,  R. C. Lochan,  I. Lotan,  
 L. A. Martinez-Martinez,  P. E. Maslen,  N. Nair,  D. P. O'Neill,  
 D. Neuhauser,  E. Neuscamman,  C. M. Oana,  R. Olivares-Amaya,  R. Olson,  
 T. M. Perrine,  B. Peters,  P. A. Pieniazek,  A. Prociuk,  Y. M. Rhee,  
 J. Ritchie,  M. A. Rohrdanz,  E. Rosta,  N. J. Russ,  H. F. Schaefer III,  
 M. W. Schmidt,  N. E. Schultz,  S. Sharma,  N. Shenvi,  C. D. Sherrill,  
 A. C. Simmonett,  A. Sodt,  T. Stein,  D. Stuck,  K. S. Thanthiriwatte,  
 V. Vanovschi,  L. Vogt,  Tao Wang,  A. Warshel,  M. A. Watson,  
 C. F. Williams,  Q. Wu,  X. Xu,  Jun Yang,  W. Zhang,  Yan Zhao

   Please cite Q-Chem as follows:
  "Software for the frontiers of quantum chemistry:
   An overview of developments in the Q-Chem 5 package"
   J. Chem. Phys. 155, 084801 (2021)
   https://doi.org/10.1063/5.0055522 (open access)

 Q-Chem 6.2.0 for Intel X86 EM64T Linux

 Parts of Q-Chem use Armadillo 9.900.5 (Nocturnal Misbehaviour).
 http://arma.sourceforge.net/

 Q-Chem begins on Fri Jan 31 01:18:20 2025  

 Host: 
0

     Scratch files written to /data/brussel/103/vsc10365/activedata/TDDFTAnthocyanidines/qchem1882082//
 May224 |scratch|qcdevops|jenkins|workspace|build_RNUM -1
 Processing $rem in /apps/brussel/RL8/skylake/software/Q-Chem/6.2.0/config/preferences:
 Processing $rem in /user/brussel/103/vsc10365/.qchemrc:
 Symmetry turned off for PCM/SM12/SMD calculation

 Checking the input file for inconsistencies... 	...done.

--------------------------------------------------------------
User input:
--------------------------------------------------------------
$comment
TDDFT calculation of delphinidin Q1 structure
nprocs=16
mem=64gb
$end

$molecule
0 1
C   -4.9313525    1.1470293    1.3855771
C   -4.8952022   -0.1027898    0.7517777
C   -3.7473106   -0.5096119    0.1030517
C   -2.6057371    0.3258817    0.0694969
C   -2.6984989    1.5646207    0.7199611
C   -3.8337710    1.9978668    1.3810220
C   -1.3858867    0.0070428   -0.5659652
C   -0.3307949    0.8776441   -0.5605047
C   -0.4450469    2.1421808    0.0925223
O   -1.6263583    2.3998117    0.7047046
C    0.5007195    3.1892225    0.2036979
C    1.7785267    3.1467479   -0.4276855
C    2.6452323    4.1944175   -0.3038593
C    2.3325806    5.3671792    0.4515639
C    1.0439373    5.3834849    1.0807112
C    0.1634510    4.3491772    0.9648178
O   -6.0515592    1.5775800    2.0303948
H   -5.7674910   -0.7456102    0.7703779
O   -3.6497024   -1.7101776   -0.5293414
H   -3.8647124    2.9609830    1.8694476
H   -1.2743238   -0.9444285   -1.0706010
O    0.8509218    0.5703441   -1.1647960
H    2.0751579    2.2971667   -1.0176261
O    3.8783063    4.1642756   -0.9148763
O    3.1454159    6.3399129    0.5619250
O    0.7337364    6.5017220    1.8139985
H   -0.7919965    4.4198273    1.4626266
H   -6.7525666    0.9126417    1.9665000
H   -4.4812269   -2.1990511   -0.4434312
H    0.7957779   -0.3156132   -1.5523682
H    1.5048717    7.0929681    1.7478412
H    4.3101859    5.0092240   -0.6978105
$end

$rem
BASIS  =  def2-ma-TZVP
MEM_STATIC  =  2000
MEM_TOTAL  =  64000
METHOD  =  CAM-B3LYP
SOLVENT_METHOD = pcm
SYMMETRY_IGNORE  =  1
CIS_N_ROOTS = 7
CIS_SINGLETS = true
CIS_TRIPLETS = true
CISTR_PRINT = true
RPA = true
PRINT_ORBITALS = true
SCF_PRINT = 1
SCF_FINAL_PRINT = 2
PRINT_GENERAL_BASIS = true
CISTR_PRINT = true
PRINT_RADII_GYRE = true
MULTIPOLE_ORDER = 5
CIS_AMPL_PRINT = 5
CIS_AMPL_ANAL = true
STATE_ANALYSIS = true
$end

$pcm
Theory   CPCM
Method   SWIG
Solver   Inversion
Radii    Bondi
$end

$solvent
Dielectric         78.39
OpticalDielectric  1.777849
$end


--------------------------------------------------------------
 ----------------------------------------------------------------
             Standard Nuclear Orientation (Angstroms)
    I     Atom           X                Y                Z
 ----------------------------------------------------------------
    1      C      -4.9313525000     1.1470293000     1.3855771000
    2      C      -4.8952022000    -0.1027898000     0.7517777000
    3      C      -3.7473106000    -0.5096119000     0.1030517000
    4      C      -2.6057371000     0.3258817000     0.0694969000
    5      C      -2.6984989000     1.5646207000     0.7199611000
    6      C      -3.8337710000     1.9978668000     1.3810220000
    7      C      -1.3858867000     0.0070428000    -0.5659652000
    8      C      -0.3307949000     0.8776441000    -0.5605047000
    9      C      -0.4450469000     2.1421808000     0.0925223000
   10      O      -1.6263583000     2.3998117000     0.7047046000
   11      C       0.5007195000     3.1892225000     0.2036979000
   12      C       1.7785267000     3.1467479000    -0.4276855000
   13      C       2.6452323000     4.1944175000    -0.3038593000
   14      C       2.3325806000     5.3671792000     0.4515639000
   15      C       1.0439373000     5.3834849000     1.0807112000
   16      C       0.1634510000     4.3491772000     0.9648178000
   17      O      -6.0515592000     1.5775800000     2.0303948000
   18      H      -5.7674910000    -0.7456102000     0.7703779000
   19      O      -3.6497024000    -1.7101776000    -0.5293414000
   20      H      -3.8647124000     2.9609830000     1.8694476000
   21      H      -1.2743238000    -0.9444285000    -1.0706010000
   22      O       0.8509218000     0.5703441000    -1.1647960000
   23      H       2.0751579000     2.2971667000    -1.0176261000
   24      O       3.8783063000     4.1642756000    -0.9148763000
   25      O       3.1454159000     6.3399129000     0.5619250000
   26      O       0.7337364000     6.5017220000     1.8139985000
   27      H      -0.7919965000     4.4198273000     1.4626266000
   28      H      -6.7525666000     0.9126417000     1.9665000000
   29      H      -4.4812269000    -2.1990511000    -0.4434312000
   30      H       0.7957779000    -0.3156132000    -1.5523682000
   31      H       1.5048717000     7.0929681000     1.7478412000
   32      H       4.3101859000     5.0092240000    -0.6978105000
 ----------------------------------------------------------------
 Nuclear Repulsion Energy =        1703.40262175 hartrees
 There are       78 alpha and       78 beta electrons
 Requested basis set is def2-ma-TZVP
 Basis set in general basis input format:
-----------------------------------------------------------------------
$basis
C    0
S    6    1.000000
   1.35753497E+04    2.22458144E-04 
   2.03523337E+03    1.72327383E-03 
   4.63225624E+02    8.92557153E-03 
   1.31200196E+02    3.57279845E-02 
   4.28530159E+01    1.10762599E-01 
   1.55841858E+01    2.42956276E-01 
S    2    1.000000
   6.20671385E+00    4.14402634E-01 
   2.57648965E+00    2.37449687E-01 
S    1    1.000000
   5.76963394E-01    1.00000000E+00 
S    1    1.000000
   2.29728314E-01    1.00000000E+00 
S    1    1.000000
   9.51644400E-02    1.00000000E+00 
S    1    1.000000
   4.84754014E-02    1.00000000E+00 
P    4    1.000000
   3.46972322E+01    5.33336578E-03 
   7.95826228E+00    3.58641091E-02 
   2.37808269E+00    1.42158733E-01 
   8.14332082E-01    3.42704718E-01 
P    1    1.000000
   2.88875473E-01    4.64458224E-01 
P    1    1.000000
   1.00568237E-01    2.49557899E-01 
D    1    1.000000
   1.09700000E+00    1.00000000E+00 
D    1    1.000000
   3.18000000E-01    1.00000000E+00 
F    1    1.000000
   7.61000000E-01    1.00000000E+00 
****
C    0
S    6    1.000000
   1.35753497E+04    2.22458144E-04 
   2.03523337E+03    1.72327383E-03 
   4.63225624E+02    8.92557153E-03 
   1.31200196E+02    3.57279845E-02 
   4.28530159E+01    1.10762599E-01 
   1.55841858E+01    2.42956276E-01 
S    2    1.000000
   6.20671385E+00    4.14402634E-01 
   2.57648965E+00    2.37449687E-01 
S    1    1.000000
   5.76963394E-01    1.00000000E+00 
S    1    1.000000
   2.29728314E-01    1.00000000E+00 
S    1    1.000000
   9.51644400E-02    1.00000000E+00 
S    1    1.000000
   4.84754014E-02    1.00000000E+00 
P    4    1.000000
   3.46972322E+01    5.33336578E-03 
   7.95826228E+00    3.58641091E-02 
   2.37808269E+00    1.42158733E-01 
   8.14332082E-01    3.42704718E-01 
P    1    1.000000
   2.88875473E-01    4.64458224E-01 
P    1    1.000000
   1.00568237E-01    2.49557899E-01 
D    1    1.000000
   1.09700000E+00    1.00000000E+00 
D    1    1.000000
   3.18000000E-01    1.00000000E+00 
F    1    1.000000
   7.61000000E-01    1.00000000E+00 
****
C    0
S    6    1.000000
   1.35753497E+04    2.22458144E-04 
   2.03523337E+03    1.72327383E-03 
   4.63225624E+02    8.92557153E-03 
   1.31200196E+02    3.57279845E-02 
   4.28530159E+01    1.10762599E-01 
   1.55841858E+01    2.42956276E-01 
S    2    1.000000
   6.20671385E+00    4.14402634E-01 
   2.57648965E+00    2.37449687E-01 
S    1    1.000000
   5.76963394E-01    1.00000000E+00 
S    1    1.000000
   2.29728314E-01    1.00000000E+00 
S    1    1.000000
   9.51644400E-02    1.00000000E+00 
S    1    1.000000
   4.84754014E-02    1.00000000E+00 
P    4    1.000000
   3.46972322E+01    5.33336578E-03 
   7.95826228E+00    3.58641091E-02 
   2.37808269E+00    1.42158733E-01 
   8.14332082E-01    3.42704718E-01 
P    1    1.000000
   2.88875473E-01    4.64458224E-01 
P    1    1.000000
   1.00568237E-01    2.49557899E-01 
D    1    1.000000
   1.09700000E+00    1.00000000E+00 
D    1    1.000000
   3.18000000E-01    1.00000000E+00 
F    1    1.000000
   7.61000000E-01    1.00000000E+00 
****
C    0
S    6    1.000000
   1.35753497E+04    2.22458144E-04 
   2.03523337E+03    1.72327383E-03 
   4.63225624E+02    8.92557153E-03 
   1.31200196E+02    3.57279845E-02 
   4.28530159E+01    1.10762599E-01 
   1.55841858E+01    2.42956276E-01 
S    2    1.000000
   6.20671385E+00    4.14402634E-01 
   2.57648965E+00    2.37449687E-01 
S    1    1.000000
   5.76963394E-01    1.00000000E+00 
S    1    1.000000
   2.29728314E-01    1.00000000E+00 
S    1    1.000000
   9.51644400E-02    1.00000000E+00 
S    1    1.000000
   4.84754014E-02    1.00000000E+00 
P    4    1.000000
   3.46972322E+01    5.33336578E-03 
   7.95826228E+00    3.58641091E-02 
   2.37808269E+00    1.42158733E-01 
   8.14332082E-01    3.42704718E-01 
P    1    1.000000
   2.88875473E-01    4.64458224E-01 
P    1    1.000000
   1.00568237E-01    2.49557899E-01 
D    1    1.000000
   1.09700000E+00    1.00000000E+00 
D    1    1.000000
   3.18000000E-01    1.00000000E+00 
F    1    1.000000
   7.61000000E-01    1.00000000E+00 
****
C    0
S    6    1.000000
   1.35753497E+04    2.22458144E-04 
   2.03523337E+03    1.72327383E-03 
   4.63225624E+02    8.92557153E-03 
   1.31200196E+02    3.57279845E-02 
   4.28530159E+01    1.10762599E-01 
   1.55841858E+01    2.42956276E-01 
S    2    1.000000
   6.20671385E+00    4.14402634E-01 
   2.57648965E+00    2.37449687E-01 
S    1    1.000000
   5.76963394E-01    1.00000000E+00 
S    1    1.000000
   2.29728314E-01    1.00000000E+00 
S    1    1.000000
   9.51644400E-02    1.00000000E+00 
S    1    1.000000
   4.84754014E-02    1.00000000E+00 
P    4    1.000000
   3.46972322E+01    5.33336578E-03 
   7.95826228E+00    3.58641091E-02 
   2.37808269E+00    1.42158733E-01 
   8.14332082E-01    3.42704718E-01 
P    1    1.000000
   2.88875473E-01    4.64458224E-01 
P    1    1.000000
   1.00568237E-01    2.49557899E-01 
D    1    1.000000
   1.09700000E+00    1.00000000E+00 
D    1    1.000000
   3.18000000E-01    1.00000000E+00 
F    1    1.000000
   7.61000000E-01    1.00000000E+00 
****
C    0
S    6    1.000000
   1.35753497E+04    2.22458144E-04 
   2.03523337E+03    1.72327383E-03 
   4.63225624E+02    8.92557153E-03 
   1.31200196E+02    3.57279845E-02 
   4.28530159E+01    1.10762599E-01 
   1.55841858E+01    2.42956276E-01 
S    2    1.000000
   6.20671385E+00    4.14402634E-01 
   2.57648965E+00    2.37449687E-01 
S    1    1.000000
   5.76963394E-01    1.00000000E+00 
S    1    1.000000
   2.29728314E-01    1.00000000E+00 
S    1    1.000000
   9.51644400E-02    1.00000000E+00 
S    1    1.000000
   4.84754014E-02    1.00000000E+00 
P    4    1.000000
   3.46972322E+01    5.33336578E-03 
   7.95826228E+00    3.58641091E-02 
   2.37808269E+00    1.42158733E-01 
   8.14332082E-01    3.42704718E-01 
P    1    1.000000
   2.88875473E-01    4.64458224E-01 
P    1    1.000000
   1.00568237E-01    2.49557899E-01 
D    1    1.000000
   1.09700000E+00    1.00000000E+00 
D    1    1.000000
   3.18000000E-01    1.00000000E+00 
F    1    1.000000
   7.61000000E-01    1.00000000E+00 
****
C    0
S    6    1.000000
   1.35753497E+04    2.22458144E-04 
   2.03523337E+03    1.72327383E-03 
   4.63225624E+02    8.92557153E-03 
   1.31200196E+02    3.57279845E-02 
   4.28530159E+01    1.10762599E-01 
   1.55841858E+01    2.42956276E-01 
S    2    1.000000
   6.20671385E+00    4.14402634E-01 
   2.57648965E+00    2.37449687E-01 
S    1    1.000000
   5.76963394E-01    1.00000000E+00 
S    1    1.000000
   2.29728314E-01    1.00000000E+00 
S    1    1.000000
   9.51644400E-02    1.00000000E+00 
S    1    1.000000
   4.84754014E-02    1.00000000E+00 
P    4    1.000000
   3.46972322E+01    5.33336578E-03 
   7.95826228E+00    3.58641091E-02 
   2.37808269E+00    1.42158733E-01 
   8.14332082E-01    3.42704718E-01 
P    1    1.000000
   2.88875473E-01    4.64458224E-01 
P    1    1.000000
   1.00568237E-01    2.49557899E-01 
D    1    1.000000
   1.09700000E+00    1.00000000E+00 
D    1    1.000000
   3.18000000E-01    1.00000000E+00 
F    1    1.000000
   7.61000000E-01    1.00000000E+00 
****
C    0
S    6    1.000000
   1.35753497E+04    2.22458144E-04 
   2.03523337E+03    1.72327383E-03 
   4.63225624E+02    8.92557153E-03 
   1.31200196E+02    3.57279845E-02 
   4.28530159E+01    1.10762599E-01 
   1.55841858E+01    2.42956276E-01 
S    2    1.000000
   6.20671385E+00    4.14402634E-01 
   2.57648965E+00    2.37449687E-01 
S    1    1.000000
   5.76963394E-01    1.00000000E+00 
S    1    1.000000
   2.29728314E-01    1.00000000E+00 
S    1    1.000000
   9.51644400E-02    1.00000000E+00 
S    1    1.000000
   4.84754014E-02    1.00000000E+00 
P    4    1.000000
   3.46972322E+01    5.33336578E-03 
   7.95826228E+00    3.58641091E-02 
   2.37808269E+00    1.42158733E-01 
   8.14332082E-01    3.42704718E-01 
P    1    1.000000
   2.88875473E-01    4.64458224E-01 
P    1    1.000000
   1.00568237E-01    2.49557899E-01 
D    1    1.000000
   1.09700000E+00    1.00000000E+00 
D    1    1.000000
   3.18000000E-01    1.00000000E+00 
F    1    1.000000
   7.61000000E-01    1.00000000E+00 
****
C    0
S    6    1.000000
   1.35753497E+04    2.22458144E-04 
   2.03523337E+03    1.72327383E-03 
   4.63225624E+02    8.92557153E-03 
   1.31200196E+02    3.57279845E-02 
   4.28530159E+01    1.10762599E-01 
   1.55841858E+01    2.42956276E-01 
S    2    1.000000
   6.20671385E+00    4.14402634E-01 
   2.57648965E+00    2.37449687E-01 
S    1    1.000000
   5.76963394E-01    1.00000000E+00 
S    1    1.000000
   2.29728314E-01    1.00000000E+00 
S    1    1.000000
   9.51644400E-02    1.00000000E+00 
S    1    1.000000
   4.84754014E-02    1.00000000E+00 
P    4    1.000000
   3.46972322E+01    5.33336578E-03 
   7.95826228E+00    3.58641091E-02 
   2.37808269E+00    1.42158733E-01 
   8.14332082E-01    3.42704718E-01 
P    1    1.000000
   2.88875473E-01    4.64458224E-01 
P    1    1.000000
   1.00568237E-01    2.49557899E-01 
D    1    1.000000
   1.09700000E+00    1.00000000E+00 
D    1    1.000000
   3.18000000E-01    1.00000000E+00 
F    1    1.000000
   7.61000000E-01    1.00000000E+00 
****
O    0
S    6    1.000000
   2.70323826E+04    2.17263025E-04 
   4.05238714E+03    1.68386622E-03 
   9.22327227E+02    8.73956163E-03 
   2.61240710E+02    3.52399688E-02 
   8.53546414E+01    1.11535191E-01 
   3.10350352E+01    2.55889540E-01 
S    2    1.000000
   1.22608607E+01    3.97687309E-01 
   4.99870760E+00    2.46278494E-01 
S    1    1.000000
   1.17031082E+00    1.00000000E+00 
S    1    1.000000
   4.64747410E-01    1.00000000E+00 
S    1    1.000000
   1.85045364E-01    1.00000000E+00 
S    1    1.000000
   7.02880263E-02    1.00000000E+00 
P    4    1.000000
   6.32749548E+01    6.06851034E-03 
   1.46270494E+01    4.19125758E-02 
   4.45012235E+00    1.61538411E-01 
   1.52757996E+00    3.57069513E-01 
P    1    1.000000
   5.29351179E-01    4.47942075E-01 
P    1    1.000000
   1.74784213E-01    2.44460697E-01 
P    1    1.000000
   5.11127457E-02    1.00000000E+00 
D    1    1.000000
   2.31400000E+00    1.00000000E+00 
D    1    1.000000
   6.45000000E-01    1.00000000E+00 
F    1    1.000000
   1.42800000E+00    1.00000000E+00 
****
C    0
S    6    1.000000
   1.35753497E+04    2.22458144E-04 
   2.03523337E+03    1.72327383E-03 
   4.63225624E+02    8.92557153E-03 
   1.31200196E+02    3.57279845E-02 
   4.28530159E+01    1.10762599E-01 
   1.55841858E+01    2.42956276E-01 
S    2    1.000000
   6.20671385E+00    4.14402634E-01 
   2.57648965E+00    2.37449687E-01 
S    1    1.000000
   5.76963394E-01    1.00000000E+00 
S    1    1.000000
   2.29728314E-01    1.00000000E+00 
S    1    1.000000
   9.51644400E-02    1.00000000E+00 
S    1    1.000000
   4.84754014E-02    1.00000000E+00 
P    4    1.000000
   3.46972322E+01    5.33336578E-03 
   7.95826228E+00    3.58641091E-02 
   2.37808269E+00    1.42158733E-01 
   8.14332082E-01    3.42704718E-01 
P    1    1.000000
   2.88875473E-01    4.64458224E-01 
P    1    1.000000
   1.00568237E-01    2.49557899E-01 
D    1    1.000000
   1.09700000E+00    1.00000000E+00 
D    1    1.000000
   3.18000000E-01    1.00000000E+00 
F    1    1.000000
   7.61000000E-01    1.00000000E+00 
****
C    0
S    6    1.000000
   1.35753497E+04    2.22458144E-04 
   2.03523337E+03    1.72327383E-03 
   4.63225624E+02    8.92557153E-03 
   1.31200196E+02    3.57279845E-02 
   4.28530159E+01    1.10762599E-01 
   1.55841858E+01    2.42956276E-01 
S    2    1.000000
   6.20671385E+00    4.14402634E-01 
   2.57648965E+00    2.37449687E-01 
S    1    1.000000
   5.76963394E-01    1.00000000E+00 
S    1    1.000000
   2.29728314E-01    1.00000000E+00 
S    1    1.000000
   9.51644400E-02    1.00000000E+00 
S    1    1.000000
   4.84754014E-02    1.00000000E+00 
P    4    1.000000
   3.46972322E+01    5.33336578E-03 
   7.95826228E+00    3.58641091E-02 
   2.37808269E+00    1.42158733E-01 
   8.14332082E-01    3.42704718E-01 
P    1    1.000000
   2.88875473E-01    4.64458224E-01 
P    1    1.000000
   1.00568237E-01    2.49557899E-01 
D    1    1.000000
   1.09700000E+00    1.00000000E+00 
D    1    1.000000
   3.18000000E-01    1.00000000E+00 
F    1    1.000000
   7.61000000E-01    1.00000000E+00 
****
C    0
S    6    1.000000
   1.35753497E+04    2.22458144E-04 
   2.03523337E+03    1.72327383E-03 
   4.63225624E+02    8.92557153E-03 
   1.31200196E+02    3.57279845E-02 
   4.28530159E+01    1.10762599E-01 
   1.55841858E+01    2.42956276E-01 
S    2    1.000000
   6.20671385E+00    4.14402634E-01 
   2.57648965E+00    2.37449687E-01 
S    1    1.000000
   5.76963394E-01    1.00000000E+00 
S    1    1.000000
   2.29728314E-01    1.00000000E+00 
S    1    1.000000
   9.51644400E-02    1.00000000E+00 
S    1    1.000000
   4.84754014E-02    1.00000000E+00 
P    4    1.000000
   3.46972322E+01    5.33336578E-03 
   7.95826228E+00    3.58641091E-02 
   2.37808269E+00    1.42158733E-01 
   8.14332082E-01    3.42704718E-01 
P    1    1.000000
   2.88875473E-01    4.64458224E-01 
P    1    1.000000
   1.00568237E-01    2.49557899E-01 
D    1    1.000000
   1.09700000E+00    1.00000000E+00 
D    1    1.000000
   3.18000000E-01    1.00000000E+00 
F    1    1.000000
   7.61000000E-01    1.00000000E+00 
****
C    0
S    6    1.000000
   1.35753497E+04    2.22458144E-04 
   2.03523337E+03    1.72327383E-03 
   4.63225624E+02    8.92557153E-03 
   1.31200196E+02    3.57279845E-02 
   4.28530159E+01    1.10762599E-01 
   1.55841858E+01    2.42956276E-01 
S    2    1.000000
   6.20671385E+00    4.14402634E-01 
   2.57648965E+00    2.37449687E-01 
S    1    1.000000
   5.76963394E-01    1.00000000E+00 
S    1    1.000000
   2.29728314E-01    1.00000000E+00 
S    1    1.000000
   9.51644400E-02    1.00000000E+00 
S    1    1.000000
   4.84754014E-02    1.00000000E+00 
P    4    1.000000
   3.46972322E+01    5.33336578E-03 
   7.95826228E+00    3.58641091E-02 
   2.37808269E+00    1.42158733E-01 
   8.14332082E-01    3.42704718E-01 
P    1    1.000000
   2.88875473E-01    4.64458224E-01 
P    1    1.000000
   1.00568237E-01    2.49557899E-01 
D    1    1.000000
   1.09700000E+00    1.00000000E+00 
D    1    1.000000
   3.18000000E-01    1.00000000E+00 
F    1    1.000000
   7.61000000E-01    1.00000000E+00 
****
C    0
S    6    1.000000
   1.35753497E+04    2.22458144E-04 
   2.03523337E+03    1.72327383E-03 
   4.63225624E+02    8.92557153E-03 
   1.31200196E+02    3.57279845E-02 
   4.28530159E+01    1.10762599E-01 
   1.55841858E+01    2.42956276E-01 
S    2    1.000000
   6.20671385E+00    4.14402634E-01 
   2.57648965E+00    2.37449687E-01 
S    1    1.000000
   5.76963394E-01    1.00000000E+00 
S    1    1.000000
   2.29728314E-01    1.00000000E+00 
S    1    1.000000
   9.51644400E-02    1.00000000E+00 
S    1    1.000000
   4.84754014E-02    1.00000000E+00 
P    4    1.000000
   3.46972322E+01    5.33336578E-03 
   7.95826228E+00    3.58641091E-02 
   2.37808269E+00    1.42158733E-01 
   8.14332082E-01    3.42704718E-01 
P    1    1.000000
   2.88875473E-01    4.64458224E-01 
P    1    1.000000
   1.00568237E-01    2.49557899E-01 
D    1    1.000000
   1.09700000E+00    1.00000000E+00 
D    1    1.000000
   3.18000000E-01    1.00000000E+00 
F    1    1.000000
   7.61000000E-01    1.00000000E+00 
****
C    0
S    6    1.000000
   1.35753497E+04    2.22458144E-04 
   2.03523337E+03    1.72327383E-03 
   4.63225624E+02    8.92557153E-03 
   1.31200196E+02    3.57279845E-02 
   4.28530159E+01    1.10762599E-01 
   1.55841858E+01    2.42956276E-01 
S    2    1.000000
   6.20671385E+00    4.14402634E-01 
   2.57648965E+00    2.37449687E-01 
S    1    1.000000
   5.76963394E-01    1.00000000E+00 
S    1    1.000000
   2.29728314E-01    1.00000000E+00 
S    1    1.000000
   9.51644400E-02    1.00000000E+00 
S    1    1.000000
   4.84754014E-02    1.00000000E+00 
P    4    1.000000
   3.46972322E+01    5.33336578E-03 
   7.95826228E+00    3.58641091E-02 
   2.37808269E+00    1.42158733E-01 
   8.14332082E-01    3.42704718E-01 
P    1    1.000000
   2.88875473E-01    4.64458224E-01 
P    1    1.000000
   1.00568237E-01    2.49557899E-01 
D    1    1.000000
   1.09700000E+00    1.00000000E+00 
D    1    1.000000
   3.18000000E-01    1.00000000E+00 
F    1    1.000000
   7.61000000E-01    1.00000000E+00 
****
O    0
S    6    1.000000
   2.70323826E+04    2.17263025E-04 
   4.05238714E+03    1.68386622E-03 
   9.22327227E+02    8.73956163E-03 
   2.61240710E+02    3.52399688E-02 
   8.53546414E+01    1.11535191E-01 
   3.10350352E+01    2.55889540E-01 
S    2    1.000000
   1.22608607E+01    3.97687309E-01 
   4.99870760E+00    2.46278494E-01 
S    1    1.000000
   1.17031082E+00    1.00000000E+00 
S    1    1.000000
   4.64747410E-01    1.00000000E+00 
S    1    1.000000
   1.85045364E-01    1.00000000E+00 
S    1    1.000000
   7.02880263E-02    1.00000000E+00 
P    4    1.000000
   6.32749548E+01    6.06851034E-03 
   1.46270494E+01    4.19125758E-02 
   4.45012235E+00    1.61538411E-01 
   1.52757996E+00    3.57069513E-01 
P    1    1.000000
   5.29351179E-01    4.47942075E-01 
P    1    1.000000
   1.74784213E-01    2.44460697E-01 
P    1    1.000000
   5.11127457E-02    1.00000000E+00 
D    1    1.000000
   2.31400000E+00    1.00000000E+00 
D    1    1.000000
   6.45000000E-01    1.00000000E+00 
F    1    1.000000
   1.42800000E+00    1.00000000E+00 
****
H    0
S    3    1.000000
   3.40613410E+01    6.02519780E-03 
   5.12357460E+00    4.50210940E-02 
   1.16466260E+00    2.01897260E-01 
S    1    1.000000
   3.27230410E-01    1.00000000E+00 
S    1    1.000000
   1.03072410E-01    1.00000000E+00 
P    1    1.000000
   8.00000000E-01    1.00000000E+00 
****
O    0
S    6    1.000000
   2.70323826E+04    2.17263025E-04 
   4.05238714E+03    1.68386622E-03 
   9.22327227E+02    8.73956163E-03 
   2.61240710E+02    3.52399688E-02 
   8.53546414E+01    1.11535191E-01 
   3.10350352E+01    2.55889540E-01 
S    2    1.000000
   1.22608607E+01    3.97687309E-01 
   4.99870760E+00    2.46278494E-01 
S    1    1.000000
   1.17031082E+00    1.00000000E+00 
S    1    1.000000
   4.64747410E-01    1.00000000E+00 
S    1    1.000000
   1.85045364E-01    1.00000000E+00 
S    1    1.000000
   7.02880263E-02    1.00000000E+00 
P    4    1.000000
   6.32749548E+01    6.06851034E-03 
   1.46270494E+01    4.19125758E-02 
   4.45012235E+00    1.61538411E-01 
   1.52757996E+00    3.57069513E-01 
P    1    1.000000
   5.29351179E-01    4.47942075E-01 
P    1    1.000000
   1.74784213E-01    2.44460697E-01 
P    1    1.000000
   5.11127457E-02    1.00000000E+00 
D    1    1.000000
   2.31400000E+00    1.00000000E+00 
D    1    1.000000
   6.45000000E-01    1.00000000E+00 
F    1    1.000000
   1.42800000E+00    1.00000000E+00 
****
H    0
S    3    1.000000
   3.40613410E+01    6.02519780E-03 
   5.12357460E+00    4.50210940E-02 
   1.16466260E+00    2.01897260E-01 
S    1    1.000000
   3.27230410E-01    1.00000000E+00 
S    1    1.000000
   1.03072410E-01    1.00000000E+00 
P    1    1.000000
   8.00000000E-01    1.00000000E+00 
****
H    0
S    3    1.000000
   3.40613410E+01    6.02519780E-03 
   5.12357460E+00    4.50210940E-02 
   1.16466260E+00    2.01897260E-01 
S    1    1.000000
   3.27230410E-01    1.00000000E+00 
S    1    1.000000
   1.03072410E-01    1.00000000E+00 
P    1    1.000000
   8.00000000E-01    1.00000000E+00 
****
O    0
S    6    1.000000
   2.70323826E+04    2.17263025E-04 
   4.05238714E+03    1.68386622E-03 
   9.22327227E+02    8.73956163E-03 
   2.61240710E+02    3.52399688E-02 
   8.53546414E+01    1.11535191E-01 
   3.10350352E+01    2.55889540E-01 
S    2    1.000000
   1.22608607E+01    3.97687309E-01 
   4.99870760E+00    2.46278494E-01 
S    1    1.000000
   1.17031082E+00    1.00000000E+00 
S    1    1.000000
   4.64747410E-01    1.00000000E+00 
S    1    1.000000
   1.85045364E-01    1.00000000E+00 
S    1    1.000000
   7.02880263E-02    1.00000000E+00 
P    4    1.000000
   6.32749548E+01    6.06851034E-03 
   1.46270494E+01    4.19125758E-02 
   4.45012235E+00    1.61538411E-01 
   1.52757996E+00    3.57069513E-01 
P    1    1.000000
   5.29351179E-01    4.47942075E-01 
P    1    1.000000
   1.74784213E-01    2.44460697E-01 
P    1    1.000000
   5.11127457E-02    1.00000000E+00 
D    1    1.000000
   2.31400000E+00    1.00000000E+00 
D    1    1.000000
   6.45000000E-01    1.00000000E+00 
F    1    1.000000
   1.42800000E+00    1.00000000E+00 
****
H    0
S    3    1.000000
   3.40613410E+01    6.02519780E-03 
   5.12357460E+00    4.50210940E-02 
   1.16466260E+00    2.01897260E-01 
S    1    1.000000
   3.27230410E-01    1.00000000E+00 
S    1    1.000000
   1.03072410E-01    1.00000000E+00 
P    1    1.000000
   8.00000000E-01    1.00000000E+00 
****
O    0
S    6    1.000000
   2.70323826E+04    2.17263025E-04 
   4.05238714E+03    1.68386622E-03 
   9.22327227E+02    8.73956163E-03 
   2.61240710E+02    3.52399688E-02 
   8.53546414E+01    1.11535191E-01 
   3.10350352E+01    2.55889540E-01 
S    2    1.000000
   1.22608607E+01    3.97687309E-01 
   4.99870760E+00    2.46278494E-01 
S    1    1.000000
   1.17031082E+00    1.00000000E+00 
S    1    1.000000
   4.64747410E-01    1.00000000E+00 
S    1    1.000000
   1.85045364E-01    1.00000000E+00 
S    1    1.000000
   7.02880263E-02    1.00000000E+00 
P    4    1.000000
   6.32749548E+01    6.06851034E-03 
   1.46270494E+01    4.19125758E-02 
   4.45012235E+00    1.61538411E-01 
   1.52757996E+00    3.57069513E-01 
P    1    1.000000
   5.29351179E-01    4.47942075E-01 
P    1    1.000000
   1.74784213E-01    2.44460697E-01 
P    1    1.000000
   5.11127457E-02    1.00000000E+00 
D    1    1.000000
   2.31400000E+00    1.00000000E+00 
D    1    1.000000
   6.45000000E-01    1.00000000E+00 
F    1    1.000000
   1.42800000E+00    1.00000000E+00 
****
O    0
S    6    1.000000
   2.70323826E+04    2.17263025E-04 
   4.05238714E+03    1.68386622E-03 
   9.22327227E+02    8.73956163E-03 
   2.61240710E+02    3.52399688E-02 
   8.53546414E+01    1.11535191E-01 
   3.10350352E+01    2.55889540E-01 
S    2    1.000000
   1.22608607E+01    3.97687309E-01 
   4.99870760E+00    2.46278494E-01 
S    1    1.000000
   1.17031082E+00    1.00000000E+00 
S    1    1.000000
   4.64747410E-01    1.00000000E+00 
S    1    1.000000
   1.85045364E-01    1.00000000E+00 
S    1    1.000000
   7.02880263E-02    1.00000000E+00 
P    4    1.000000
   6.32749548E+01    6.06851034E-03 
   1.46270494E+01    4.19125758E-02 
   4.45012235E+00    1.61538411E-01 
   1.52757996E+00    3.57069513E-01 
P    1    1.000000
   5.29351179E-01    4.47942075E-01 
P    1    1.000000
   1.74784213E-01    2.44460697E-01 
P    1    1.000000
   5.11127457E-02    1.00000000E+00 
D    1    1.000000
   2.31400000E+00    1.00000000E+00 
D    1    1.000000
   6.45000000E-01    1.00000000E+00 
F    1    1.000000
   1.42800000E+00    1.00000000E+00 
****
O    0
S    6    1.000000
   2.70323826E+04    2.17263025E-04 
   4.05238714E+03    1.68386622E-03 
   9.22327227E+02    8.73956163E-03 
   2.61240710E+02    3.52399688E-02 
   8.53546414E+01    1.11535191E-01 
   3.10350352E+01    2.55889540E-01 
S    2    1.000000
   1.22608607E+01    3.97687309E-01 
   4.99870760E+00    2.46278494E-01 
S    1    1.000000
   1.17031082E+00    1.00000000E+00 
S    1    1.000000
   4.64747410E-01    1.00000000E+00 
S    1    1.000000
   1.85045364E-01    1.00000000E+00 
S    1    1.000000
   7.02880263E-02    1.00000000E+00 
P    4    1.000000
   6.32749548E+01    6.06851034E-03 
   1.46270494E+01    4.19125758E-02 
   4.45012235E+00    1.61538411E-01 
   1.52757996E+00    3.57069513E-01 
P    1    1.000000
   5.29351179E-01    4.47942075E-01 
P    1    1.000000
   1.74784213E-01    2.44460697E-01 
P    1    1.000000
   5.11127457E-02    1.00000000E+00 
D    1    1.000000
   2.31400000E+00    1.00000000E+00 
D    1    1.000000
   6.45000000E-01    1.00000000E+00 
F    1    1.000000
   1.42800000E+00    1.00000000E+00 
****
H    0
S    3    1.000000
   3.40613410E+01    6.02519780E-03 
   5.12357460E+00    4.50210940E-02 
   1.16466260E+00    2.01897260E-01 
S    1    1.000000
   3.27230410E-01    1.00000000E+00 
S    1    1.000000
   1.03072410E-01    1.00000000E+00 
P    1    1.000000
   8.00000000E-01    1.00000000E+00 
****
H    0
S    3    1.000000
   3.40613410E+01    6.02519780E-03 
   5.12357460E+00    4.50210940E-02 
   1.16466260E+00    2.01897260E-01 
S    1    1.000000
   3.27230410E-01    1.00000000E+00 
S    1    1.000000
   1.03072410E-01    1.00000000E+00 
P    1    1.000000
   8.00000000E-01    1.00000000E+00 
****
H    0
S    3    1.000000
   3.40613410E+01    6.02519780E-03 
   5.12357460E+00    4.50210940E-02 
   1.16466260E+00    2.01897260E-01 
S    1    1.000000
   3.27230410E-01    1.00000000E+00 
S    1    1.000000
   1.03072410E-01    1.00000000E+00 
P    1    1.000000
   8.00000000E-01    1.00000000E+00 
****
H    0
S    3    1.000000
   3.40613410E+01    6.02519780E-03 
   5.12357460E+00    4.50210940E-02 
   1.16466260E+00    2.01897260E-01 
S    1    1.000000
   3.27230410E-01    1.00000000E+00 
S    1    1.000000
   1.03072410E-01    1.00000000E+00 
P    1    1.000000
   8.00000000E-01    1.00000000E+00 
****
H    0
S    3    1.000000
   3.40613410E+01    6.02519780E-03 
   5.12357460E+00    4.50210940E-02 
   1.16466260E+00    2.01897260E-01 
S    1    1.000000
   3.27230410E-01    1.00000000E+00 
S    1    1.000000
   1.03072410E-01    1.00000000E+00 
P    1    1.000000
   8.00000000E-01    1.00000000E+00 
****
H    0
S    3    1.000000
   3.40613410E+01    6.02519780E-03 
   5.12357460E+00    4.50210940E-02 
   1.16466260E+00    2.01897260E-01 
S    1    1.000000
   3.27230410E-01    1.00000000E+00 
S    1    1.000000
   1.03072410E-01    1.00000000E+00 
P    1    1.000000
   8.00000000E-01    1.00000000E+00 
****
$end
-----------------------------------------------------------------------
 There are 311 shells and 785 basis functions

 Total QAlloc Memory Limit  64000 MB
 Mega-Array Size      1956 MB
 MEM_STATIC part      2000 MB

 User-specified dielectric constants (eps_0 = 78.39, eps_inf = 1.78)
 Using C-PCM dielectric factor f(eps) = (eps-1)/eps = 0.987243
 Static dielectric constant eps = 78.39
 Discretize the solute cavity surface with Lebedev spheres
	Using 110 Lebedev grid points for each H atom
	Using 194 Lebedev grid points for other atoms
	Atomic van der Waals radii (Bondi set) will be scaled by 1.20
 Using smooth SwiG surface discretization
 Remove points where switching function is < 1.0e-08
 Keep 2198 surface tesserae and discard 3170 interior tesserae
 Molecular Surface Area = 305.661 Angst**2

 A cutoff of  1.0D-12 yielded  34336 shell pairs
 There are    205868 function pairs (    261560 Cartesian)
 Smallest overlap matrix eigenvalue = 3.80E-06

 Scale SEOQF with 1.000000e-02/1.000000e-02/1.000000e-01

 Standard Electronic Orientation quadrupole field applied
 Nucleus-field energy     =     0.0000000014 hartrees
 Guess from superposition of atomic densities
 Warning:  Energy on first SCF cycle will be non-variational
 SAD guess density has 156.000000 electrons

 -----------------------------------------------------------------------
  General SCF calculation program by
  Eric Jon Sundstrom, Paul Horn, Yuezhi Mao, Dmitri Zuev, Alec White,
  David Stuck, Shaama M.S., Shane Yost, Joonho Lee, David Small,
  Daniel Levine, Susi Lehtola, Hugh Burton, Evgeny Epifanovsky,
  Bang C. Huynh
 -----------------------------------------------------------------------
 Exchange:     0.1900 Hartree-Fock + 0.3500 B88 + 0.4600 muB88 + LR-HF
 Correlation:  0.1900 VWN5 + 0.8100 LYP
 Using SG-1 standard quadrature grid
 using 16 threads for integral computing
 -------------------------------------------------------
 OpenMP Integral computing Module                
 Release: version 1.0, May 2013, Q-Chem Inc. Pittsburgh 
 -------------------------------------------------------
 C-PCM solvent model [f = (eps-1)/eps], solve by matrix inversion
 DFT Correlation          Energy =  -6.39385123026840
 DFT Exchange             Energy = -98.74034221712039
 HF Exchange              Energy = -40.23153520886315
 One-Electron             Energy = -4878.92027175759904
 SCRF wf-dependent energy Energy =   0.00000000000000
 Total Coulomb            Energy = 2210.17210019383992
 Nuclear repulsion Energy = 1703.40262174677309
 A restricted SCF calculation will be
 performed using DIIS
 SCF converges when DIIS error is below 1.0e-08
 DFT Correlation          Energy =  -6.39385123026840
 DFT Exchange             Energy = -98.74034221712039
 HF Exchange              Energy = -40.23153520886315
 One-Electron             Energy = -4878.92027175759904
 SCRF wf-dependent energy Energy =   0.00000000000000
 Total Coulomb            Energy = 2210.17210019383992
 ---------------------------------------
  Cycle       Energy         DIIS error
 ---------------------------------------
 DFT Correlation          Energy =  -6.47830200628311
 DFT Exchange             Energy = -100.82674561154229
 HF Exchange              Energy = -38.94098985208740
 One-Electron             Energy = -4899.70270720675398
 SCRF wf-dependent energy Energy =  -0.77040499966620
 Total Coulomb            Energy = 2239.48348808327046
 Nuclear repulsion Energy = 1703.40262174677309
    1   -1110.7112784732      2.08e-02  
 DFT Correlation          Energy =  -6.41622939265275
 DFT Exchange             Energy = -98.94674144206573
 HF Exchange              Energy = -38.41192273579162
 One-Electron             Energy = -4886.35237685852553
 SCRF wf-dependent energy Energy =   1.05805173072554
 Total Coulomb            Energy = 2221.96779737776569
 Nuclear repulsion Energy = 1703.40262174677309
    2   -1103.8330398463      2.30e-03  
 DFT Correlation          Energy =  -6.44439449760254
 DFT Exchange             Energy = -99.87280665018220
 HF Exchange              Energy = -38.69193415389328
 One-Electron             Energy = -4889.59511903177008
 SCRF wf-dependent energy Energy =  -0.85055612770384
 Total Coulomb            Energy = 2227.91129858146587
 Nuclear repulsion Energy = 1703.40262174677309
    3   -1103.6987995738      2.89e-03  
 DFT Correlation          Energy =  -6.44640790565828
 DFT Exchange             Energy = -99.90158901783647
 HF Exchange              Energy = -38.69769198271096
 One-Electron             Energy = -4891.76684857325290
 SCRF wf-dependent energy Energy =  -0.29329069930145
 Total Coulomb            Energy = 2229.54736588862852
 Nuclear repulsion Energy = 1703.40262174677309
    4   -1104.1408901329      5.30e-04  
 DFT Correlation          Energy =  -6.44606527912416
 DFT Exchange             Energy = -99.89131170096346
 HF Exchange              Energy = -38.69590549927840
 One-Electron             Energy = -4891.64376987331161
 SCRF wf-dependent energy Energy =  -0.32946662376412
 Total Coulomb            Energy = 2229.44603994387126
 Nuclear repulsion Energy = 1703.40262174677309
    5   -1104.1558405434      1.93e-04  
 DFT Correlation          Energy =  -6.44585988188287
 DFT Exchange             Energy = -99.89033478140414
 HF Exchange              Energy = -38.69654288352775
 One-Electron             Energy = -4891.45261250099702
 SCRF wf-dependent energy Energy =  -0.36383491202037
 Total Coulomb            Energy = 2229.28846276780087
 Nuclear repulsion Energy = 1703.40262174677309
    6   -1104.1578572858      5.88e-05  
 DFT Correlation          Energy =  -6.44583289560943
 DFT Exchange             Energy = -99.88899481091475
 HF Exchange              Energy = -38.69640565002549
 One-Electron             Energy = -4891.45981787869732
 SCRF wf-dependent energy Energy =  -0.35806418077232
 Total Coulomb            Energy = 2229.28836573732269
 Nuclear repulsion Energy = 1703.40262174677309
    7   -1104.1581004453      1.70e-05  
 DFT Correlation          Energy =  -6.44589307620693
 DFT Exchange             Energy = -99.89057301647325
 HF Exchange              Energy = -38.69693527830758
 One-Electron             Energy = -4891.48896581108238
 SCRF wf-dependent energy Energy =  -0.35563308364203
 Total Coulomb            Energy = 2229.31724292072658
 Nuclear repulsion Energy = 1703.40262174677309
    8   -1104.1581279319      5.77e-06  
 DFT Correlation          Energy =  -6.44588256938309
 DFT Exchange             Energy = -99.89030705958334
 HF Exchange              Energy = -38.69694371373150
 One-Electron             Energy = -4891.48702716917796
 SCRF wf-dependent energy Energy =  -0.35465516209160
 Total Coulomb            Energy = 2229.31405526500066
 Nuclear repulsion Energy = 1703.40262174677309
    9   -1104.1581355982      3.04e-06  
 DFT Correlation          Energy =  -6.44588066277874
 DFT Exchange             Energy = -99.89027395412455
 HF Exchange              Energy = -38.69695581385965
 One-Electron             Energy = -4891.48539783213801
 SCRF wf-dependent energy Energy =  -0.35485578125849
 Total Coulomb            Energy = 2229.31260302417786
 Nuclear repulsion Energy = 1703.40262174677309
   10   -1104.1581386622      1.48e-06  
 DFT Correlation          Energy =  -6.44588471966758
 DFT Exchange             Energy = -99.89038269739943
 HF Exchange              Energy = -38.69698568893578
 One-Electron             Energy = -4891.48832761186077
 SCRF wf-dependent energy Energy =  -0.35424971429575
 Total Coulomb            Energy = 2229.31506923494908
 Nuclear repulsion Energy = 1703.40262174677309
   11   -1104.1581392732      5.63e-07  
 DFT Correlation          Energy =  -6.44588450515040
 DFT Exchange             Energy = -99.89036412275541
 HF Exchange              Energy = -38.69697938419890
 One-Electron             Energy = -4891.48833677885887
 SCRF wf-dependent energy Energy =  -0.35416152678522
 Total Coulomb            Energy = 2229.31496509393901
 Nuclear repulsion Energy = 1703.40262174677309
   12   -1104.1581394504      3.07e-07  
 DFT Correlation          Energy =  -6.44588460289655
 DFT Exchange             Energy = -99.89037935386291
 HF Exchange              Energy = -38.69698262006608
 One-Electron             Energy = -4891.48845694877127
 SCRF wf-dependent energy Energy =  -0.35411080969516
 Total Coulomb            Energy = 2229.31505310636112
 Nuclear repulsion Energy = 1703.40262174677309
   13   -1104.1581394770      1.64e-07  
 DFT Correlation          Energy =  -6.44588460707051
 DFT Exchange             Energy = -99.89037684273904
 HF Exchange              Energy = -38.69698162150522
 One-Electron             Energy = -4891.48850536350346
 SCRF wf-dependent energy Energy =  -0.35409047778376
 Total Coulomb            Energy = 2229.31507768353458
 Nuclear repulsion Energy = 1703.40262174677309
   14   -1104.1581394822      3.89e-08  
 DFT Correlation          Energy =  -6.44588463606288
 DFT Exchange             Energy = -99.89037813293400
 HF Exchange              Energy = -38.69698186441331
 One-Electron             Energy = -4891.48852564486424
 SCRF wf-dependent energy Energy =  -0.35408450967248
 Total Coulomb            Energy = 2229.31509355849903
 Nuclear repulsion Energy = 1703.40262174677309
   15   -1104.1581394823      1.82e-08  
   16   -1104.1581394827      4.36e-09  Convergence criterion met
 ---------------------------------------
 DFT Correlation          Energy =  -6.44588463606288
 DFT Exchange             Energy = -99.89037813293400
 HF Exchange              Energy = -38.69698186441331
 One-Electron             Energy = -4891.48852564486424
 SCRF wf-dependent energy Energy =  -0.35408450967248
 Total Coulomb            Energy = 2229.31509355849903
 Final Alpha MO Eigenvalues
            1           2           3           4           5           6
    1 -19.2979551 -19.2487650 -19.2481255 -19.2462592 -19.2273229 -19.2253239
            7           8           9          10          11          12
    1 -19.1714329 -10.3712896 -10.3481242 -10.3431618 -10.3423604 -10.3401261
           13          14          15          16          17          18
    1 -10.3182627 -10.3059915 -10.3028603 -10.2906905 -10.2812392 -10.2728920
           19          20          21          22          23          24
    1 -10.2608214 -10.2565732 -10.2545967 -10.2545389  -1.2256375  -1.1648549
           25          26          27          28          29          30
    1  -1.1639199  -1.1594055  -1.1476688  -1.1365400  -1.0795690  -0.9734566
           31          32          33          34          35          36
    1  -0.9476942  -0.9202229  -0.8837989  -0.8461647  -0.8311329  -0.8183042
           37          38          39          40          41          42
    1  -0.7658254  -0.7630221  -0.7206002  -0.7048774  -0.6941117  -0.6750983
           43          44          45          46          47          48
    1  -0.6501178  -0.6404277  -0.6281736  -0.6232571  -0.6073967  -0.5845478
           49          50          51          52          53          54
    1  -0.5752683  -0.5660348  -0.5574707  -0.5462628  -0.5307970  -0.5192888
           55          56          57          58          59          60
    1  -0.5177764  -0.5125357  -0.5122874  -0.4972424  -0.4952908  -0.4945186
           61          62          63          64          65          66
    1  -0.4844157  -0.4830433  -0.4636867  -0.4632701  -0.4621421  -0.4467491
           67          68          69          70          71          72
    1  -0.4380678  -0.4344563  -0.4249199  -0.4235852  -0.4112687  -0.3935298
           73          74          75          76          77          78
    1  -0.3631241  -0.3345734  -0.3198816  -0.2910974  -0.2885471  -0.2388952
           79          80          81          82          83          84
    1  -0.0724544   0.0052778   0.0261132   0.0315263   0.0319803   0.0376264
           85          86          87          88          89          90
    1   0.0452573   0.0485919   0.0526031   0.0585150   0.0630474   0.0690050
           91          92          93          94          95          96
    1   0.0763070   0.0768707   0.0851282   0.0869420   0.0927416   0.0933778
           97          98          99         100         101         102
    1   0.1021848   0.1085284   0.1119912   0.1130414   0.1139661   0.1227986
          103         104         105         106         107         108
    1   0.1271848   0.1336738   0.1356329   0.1444596   0.1461130   0.1490816
          109         110         111         112         113         114
    1   0.1500048   0.1563454   0.1628864   0.1688389   0.1752302   0.1797457
          115         116         117         118         119         120
    1   0.1849711   0.1884315   0.2016303   0.2022583   0.2059013   0.2172438
          121         122         123         124         125         126
    1   0.2185293   0.2232640   0.2275331   0.2333150   0.2368601   0.2399059
          127         128         129         130         131         132
    1   0.2429092   0.2452632   0.2562911   0.2578465   0.2658493   0.2696607
          133         134         135         136         137         138
    1   0.2779169   0.2786771   0.2816792   0.2885895   0.2911550   0.2949722
          139         140         141         142         143         144
    1   0.3030440   0.3054816   0.3082704   0.3111564   0.3149566   0.3164009
          145         146         147         148         149         150
    1   0.3184993   0.3234275   0.3293977   0.3343131   0.3361050   0.3380062
          151         152         153         154         155         156
    1   0.3410341   0.3450945   0.3495468   0.3575935   0.3626427   0.3690404
          157         158         159         160         161         162
    1   0.3744959   0.3783448   0.3825978   0.3851751   0.3886272   0.3925308
          163         164         165         166         167         168
    1   0.3931382   0.4018453   0.4098784   0.4187142   0.4219590   0.4268669
          169         170         171         172         173         174
    1   0.4309466   0.4366939   0.4421610   0.4463063   0.4475939   0.4520116
          175         176         177         178         179         180
    1   0.4580121   0.4587310   0.4595459   0.4647754   0.4777622   0.4800923
          181         182         183         184         185         186
    1   0.4871804   0.4893822   0.4907780   0.4993033   0.5065651   0.5088707
          187         188         189         190         191         192
    1   0.5112362   0.5245289   0.5274134   0.5317519   0.5397663   0.5476820
          193         194         195         196         197         198
    1   0.5554793   0.5587114   0.5612089   0.5747425   0.5778425   0.5820717
          199         200         201         202         203         204
    1   0.5833032   0.5874804   0.5909320   0.6038478   0.6129701   0.6145516
          205         206         207         208         209         210
    1   0.6168033   0.6287933   0.6299781   0.6351085   0.6374555   0.6417576
          211         212         213         214         215         216
    1   0.6441467   0.6458605   0.6566291   0.6590655   0.6602263   0.6633544
          217         218         219         220         221         222
    1   0.6689564   0.6729320   0.6735662   0.6855980   0.6921176   0.7012223
          223         224         225         226         227         228
    1   0.7042114   0.7119228   0.7153795   0.7185213   0.7205535   0.7339325
          229         230         231         232         233         234
    1   0.7387141   0.7474173   0.7509108   0.7543797   0.7565222   0.7684134
          235         236         237         238         239         240
    1   0.7753495   0.7768032   0.7844029   0.7888906   0.7969288   0.7976092
          241         242         243         244         245         246
    1   0.8018984   0.8051740   0.8116095   0.8170750   0.8210781   0.8292228
          247         248         249         250         251         252
    1   0.8350582   0.8358973   0.8452309   0.8481514   0.8633616   0.8683669
          253         254         255         256         257         258
    1   0.8776526   0.8918183   0.8940008   0.9017856   0.9101072   0.9135038
          259         260         261         262         263         264
    1   0.9149167   0.9207215   0.9240769   0.9329459   0.9387242   0.9486849
          265         266         267         268         269         270
    1   0.9588029   0.9734773   0.9786548   0.9938091   1.0071000   1.0140904
          271         272         273         274         275         276
    1   1.0338428   1.0398054   1.0413822   1.0511020   1.0623327   1.0716614
          277         278         279         280         281         282
    1   1.0784284   1.0951296   1.0965141   1.1082132   1.1161481   1.1192889
          283         284         285         286         287         288
    1   1.1267029   1.1352490   1.1419792   1.1517097   1.1543937   1.1632426
          289         290         291         292         293         294
    1   1.1714178   1.1790712   1.1917754   1.1967383   1.2009516   1.2038865
          295         296         297         298         299         300
    1   1.2161960   1.2201521   1.2405331   1.2424576   1.2552230   1.2628958
          301         302         303         304         305         306
    1   1.2691971   1.2932995   1.2973464   1.3105469   1.3321087   1.3339759
          307         308         309         310         311         312
    1   1.3402830   1.3582546   1.3743071   1.3787367   1.3865743   1.3928095
          313         314         315         316         317         318
    1   1.3959365   1.4074034   1.4183018   1.4336536   1.4362071   1.4457090
          319         320         321         322         323         324
    1   1.4631559   1.4678826   1.4725674   1.4756225   1.4831390   1.4962050
          325         326         327         328         329         330
    1   1.5036300   1.5132446   1.5284970   1.5314579   1.5352155   1.5400780
          331         332         333         334         335         336
    1   1.5553950   1.5589738   1.5687865   1.5918234   1.5928730   1.5950452
          337         338         339         340         341         342
    1   1.6057030   1.6159447   1.6348001   1.6378104   1.6540525   1.6599794
          343         344         345         346         347         348
    1   1.6724450   1.6807666   1.6917499   1.7081558   1.7125032   1.7156004
          349         350         351         352         353         354
    1   1.7250242   1.7262595   1.7302878   1.7412993   1.7464831   1.7584828
          355         356         357         358         359         360
    1   1.7669640   1.7700733   1.7767360   1.7813806   1.7850675   1.7962998
          361         362         363         364         365         366
    1   1.8073729   1.8248712   1.8452123   1.8516819   1.8619238   1.8792942
          367         368         369         370         371         372
    1   1.8815578   1.8953195   1.9005437   1.9023713   1.9141064   1.9420624
          373         374         375         376         377         378
    1   1.9497734   1.9521583   1.9636111   1.9676772   1.9765533   1.9876101
          379         380         381         382         383         384
    1   1.9993065   2.0061608   2.0098990   2.0174877   2.0218889   2.0313980
          385         386         387         388         389         390
    1   2.0506710   2.0584951   2.0680577   2.0792717   2.0834978   2.0906681
          391         392         393         394         395         396
    1   2.1137798   2.1147769   2.1224635   2.1360303   2.1449599   2.1506186
          397         398         399         400         401         402
    1   2.1602346   2.1730987   2.1751239   2.1891739   2.1981810   2.2011540
          403         404         405         406         407         408
    1   2.2037257   2.2060123   2.2184843   2.2246141   2.2285559   2.2362495
          409         410         411         412         413         414
    1   2.2392869   2.2405429   2.2620563   2.2786733   2.2933443   2.2957059
          415         416         417         418         419         420
    1   2.2985095   2.3013086   2.3113542   2.3450521   2.3555842   2.3577304
          421         422         423         424         425         426
    1   2.3725039   2.3750375   2.3816919   2.3942438   2.4072696   2.4223981
          427         428         429         430         431         432
    1   2.4314088   2.4423023   2.4593956   2.4663472   2.4825463   2.5093627
          433         434         435         436         437         438
    1   2.5143399   2.5188050   2.5268261   2.5406316   2.5438743   2.5492385
          439         440         441         442         443         444
    1   2.5670038   2.5763554   2.5900377   2.6079301   2.6118003   2.6197097
          445         446         447         448         449         450
    1   2.6315109   2.6447913   2.6756108   2.6780382   2.6833667   2.6928660
          451         452         453         454         455         456
    1   2.6954692   2.7094296   2.7148309   2.7197108   2.7215797   2.7440128
          457         458         459         460         461         462
    1   2.7472096   2.7564105   2.7657089   2.7701024   2.7775706   2.7871994
          463         464         465         466         467         468
    1   2.7935479   2.8015295   2.8095350   2.8221656   2.8354737   2.8458609
          469         470         471         472         473         474
    1   2.8610462   2.8742630   2.8789293   2.8816305   2.8917481   2.8931263
          475         476         477         478         479         480
    1   2.8972306   2.9020028   2.9045789   2.9150675   2.9172982   2.9234445
          481         482         483         484         485         486
    1   2.9420107   2.9487123   2.9585953   2.9652834   2.9712382   2.9733870
          487         488         489         490         491         492
    1   2.9932336   2.9974516   3.0007105   3.0080744   3.0193069   3.0224120
          493         494         495         496         497         498
    1   3.0351606   3.0360870   3.0456017   3.0476175   3.0526510   3.0774261
          499         500         501         502         503         504
    1   3.0798932   3.0856787   3.0936730   3.1041739   3.1119912   3.1254568
          505         506         507         508         509         510
    1   3.1276972   3.1365963   3.1400723   3.1488632   3.1592054   3.1750482
          511         512         513         514         515         516
    1   3.1792842   3.1871934   3.1921158   3.1952791   3.2003924   3.2122327
          517         518         519         520         521         522
    1   3.2199916   3.2311733   3.2383013   3.2430700   3.2442684   3.2527697
          523         524         525         526         527         528
    1   3.2597983   3.2760660   3.2771778   3.2788506   3.2870395   3.2900616
          529         530         531         532         533         534
    1   3.2991678   3.3021861   3.3059082   3.3146107   3.3295391   3.3324920
          535         536         537         538         539         540
    1   3.3333964   3.3443133   3.3661571   3.3715509   3.3846628   3.3927213
          541         542         543         544         545         546
    1   3.3985873   3.4139177   3.4203896   3.4297484   3.4320554   3.4354011
          547         548         549         550         551         552
    1   3.4534319   3.4564578   3.4606389   3.4647445   3.4700604   3.4719871
          553         554         555         556         557         558
    1   3.4880867   3.4900758   3.4953589   3.4976264   3.5087792   3.5147204
          559         560         561         562         563         564
    1   3.5149381   3.5257552   3.5300579   3.5386054   3.5633685   3.5648315
          565         566         567         568         569         570
    1   3.5738268   3.5863661   3.5933292   3.6009132   3.6191906   3.6194750
          571         572         573         574         575         576
    1   3.6265423   3.6353346   3.6431799   3.6521785   3.6759551   3.6792298
          577         578         579         580         581         582
    1   3.6831538   3.6991801   3.7210473   3.7249640   3.7457445   3.7488581
          583         584         585         586         587         588
    1   3.7563221   3.7744145   3.7784765   3.7928321   3.8111433   3.8355433
          589         590         591         592         593         594
    1   3.8550072   3.8792880   3.8889847   3.8917984   3.9013062   3.9323610
          595         596         597         598         599         600
    1   3.9415146   3.9608639   3.9660699   4.0084437   4.0198108   4.0431138
          601         602         603         604         605         606
    1   4.0481028   4.0504252   4.0558811   4.0851803   4.0860895   4.0939506
          607         608         609         610         611         612
    1   4.1080564   4.1256016   4.1301417   4.1523219   4.1635364   4.1778090
          613         614         615         616         617         618
    1   4.1951530   4.2205613   4.2227530   4.2300681   4.2438841   4.2529998
          619         620         621         622         623         624
    1   4.2599207   4.2708328   4.2807680   4.2884220   4.2998287   4.3066447
          625         626         627         628         629         630
    1   4.3139390   4.3233302   4.3654153   4.3881588   4.4024156   4.4261521
          631         632         633         634         635         636
    1   4.4415688   4.4478357   4.4682404   4.5082190   4.5191671   4.5233021
          637         638         639         640         641         642
    1   4.5449026   4.5597952   4.5825124   4.5923217   4.6317625   4.6372067
          643         644         645         646         647         648
    1   4.6612468   4.6629165   4.6707206   4.6799003   4.6944543   4.7061589
          649         650         651         652         653         654
    1   4.7628255   4.8001266   4.8195209   4.8506911   4.8517086   4.8876816
          655         656         657         658         659         660
    1   4.9218363   4.9319168   4.9470256   4.9802325   4.9880420   5.0067517
          661         662         663         664         665         666
    1   5.0308278   5.0353857   5.0652415   5.0905674   5.1210886   5.1463419
          667         668         669         670         671         672
    1   5.1892279   5.2192044   5.2514994   5.2757145   5.2938844   5.3096539
          673         674         675         676         677         678
    1   5.3111961   5.3132739   5.3171731   5.3229284   5.3341659   5.3587467
          679         680         681         682         683         684
    1   5.3693321   5.3791548   5.4078113   5.4129253   5.4527042   5.4837342
          685         686         687         688         689         690
    1   5.5162538   5.5171736   5.5222974   5.5256812   5.5320304   5.5447029
          691         692         693         694         695         696
    1   5.5580076   5.5892392   5.5974711   5.6199762   5.6607578   5.6753074
          697         698         699         700         701         702
    1   5.6922320   5.7256052   5.7863941   5.8035839   5.8145996   5.8220211
          703         704         705         706         707         708
    1   5.8244936   5.8531090   5.8596107   5.8960666   5.9956968   6.0047739
          709         710         711         712         713         714
    1   6.0510004   6.0785058   6.0961404   6.1110820   6.1702066   6.1733619
          715         716         717         718         719         720
    1   6.1915139   6.2381912   6.2586882   6.3938048   6.4144510   6.4368583
          721         722         723         724         725         726
    1   6.4441357   6.4494168   6.4551442   6.4643924   6.4720159   6.4811024
          727         728         729         730         731         732
    1   6.4867492   6.4912961   6.5164975   6.5185573   6.5685676   6.6576836
          733         734         735         736         737         738
    1   6.6861113   6.7435482   6.7552732   6.7734364   6.7782147   6.7865003
          739         740         741         742         743         744
    1   6.7876548   6.8712497   6.8898255   6.9273555   6.9377060   6.9409590
          745         746         747         748         749         750
    1   6.9435307   6.9479392   6.9831634   6.9881346   7.0424120   7.0991260
          751         752         753         754         755         756
    1   7.1082696   7.1137849   7.1266946   7.1562858   7.1686457   7.2486645
          757         758         759         760         761         762
    1   7.3704541   7.4023036   7.4102378   7.4239619   7.4678777   7.5048212
          763         764         765         766         767         768
    1   7.5779107  22.4750877  22.6517167  22.8086535  22.8403696  22.8831795
          769         770         771         772         773         774
    1  22.9403441  23.0032523  23.0519765  23.0694457  23.0781481  23.1324716
          775         776         777         778         779         780
    1  23.2060253  23.3838037  23.6478401  23.6801675  44.0159674  44.1115095
          781         782         783         784         785
    1  44.1451509  44.1694352  44.1777374  44.3072669  44.7161807
 SCF time:   CPU 5812.24s  wall 520.00s 
 DFT Correlation          Energy =  -6.44588463606288
 DFT Exchange             Energy = -99.89037813293400
 HF Exchange              Energy = -38.69698186441331
 One-Electron             Energy = -4891.48852564486424
 SCRF wf-dependent energy Energy =  -0.35408450967248
 Total Coulomb            Energy = 2229.31509355849903
 Nuclear repulsion Energy = 1703.40262174677309

************** Final PCM Free Energy Summary **************
 G_electrostatic  =      -0.05617497 hartree =     -35.25032818 kcal/mol
 G_cavitation     =       0.00000000 hartree =       0.00000000 kcal/mol
 G_dispersion     =       0.00000000 hartree =       0.00000000 kcal/mol
 G_repulsion      =       0.00000000 hartree =       0.00000000 kcal/mol
 --------------------------------------------------
 Non-electrostatic Free Energy =       0.00000000 hartree =       0.00000000 kcal/mol
 Total                         =      -0.05617497 hartree =     -35.25032818 kcal/mol
 --------------------------------------------------
 SCF Energy (H0 + V/2)                       =   -1104.15813948 
 Solute Internal Energy (H0)                 =   -1104.10196451 
 Total Free Energy (H0 + V/2 + non-elec)     =   -1104.15813948 hartree
                                             = -692869.69338922 kcal/mol
***********************************************************

 SCF   energy = -1104.15813948
 Total energy = -1104.15813948
 MAX_CIS_SUBSPACE fits in available memory
 Direct TDDFT/TDA calculation will be performed
 Exchange:     0.1900 Hartree-Fock + 0.3500 B88 + 0.4600 muB88 + LR-HF
 Correlation:  0.1900 VWN5 + 0.8100 LYP
 Using SG-1 standard quadrature grid
 Triplet excitation energies requested
 Singlet excitation energies requested
 Adding PCM contribution to the XC response (LR-PCM)
 Optical dielectric constant (eps_inf) =  1.78
 CIS energy converged when residual is below 10e- 6
 ---------------------------------------------------
 Iter    Rts Conv    Rts Left    Ttl Dev     Max Dev
 ---------------------------------------------------
   1         0           7      0.000938    0.000160
   2         0           7      0.000324    0.000067
   3         0           7      0.000119    0.000035
   4         0           7      0.000192    0.000142
   5         1           6      0.000084    0.000063
   6         4           3      0.000061    0.000051
   7         5           2      0.000039    0.000035
   8         6           1      0.000022    0.000020
   9         6           1      0.000013    0.000011
  10         6           1      0.000007    0.000005
  11         6           1      0.000005    0.000003
  12         6           1      0.000005    0.000003
  13         6           1      0.000004    0.000002
  14         7           0      0.000002    0.000001    Roots Converged
 ---------------------------------------------------
 Triplets done: starting singlet calculation
 ---------------------------------------------------
 Iter    Rts Conv    Rts Left    Ttl Dev     Max Dev
 ---------------------------------------------------
  15         0           7      0.002046    0.000522
  16         0           7      0.000526    0.000108
  17         0           7      0.000281    0.000075
  18         0           7      0.000172    0.000048
  19         0           7      0.000082    0.000026
  20         1           6      0.000044    0.000015
  21         4           3      0.000016    0.000006
  22         4           3      0.000010    0.000003
  23         5           2      0.000005    0.000001
  24         7           0      0.000003    0.000001    Roots Converged
 ---------------------------------------------------
 
 ---------------------------------------------------
         TDDFT/TDA Excitation Energies              
 ---------------------------------------------------

 Excited state   1: excitation energy (eV) =       1.3692
 Total energy for state   1:                 -1104.10782413 au
    Multiplicity: Triplet
    Trans. Mom.:  0.0000 X   0.0000 Y   0.0000 Z
    Strength   :     0.0000000000
    D(   73) --> V(    1) amplitude =  0.0763
    D(   78) --> V(    1) amplitude =  0.9770

 Excited state   2: excitation energy (eV) =       2.6419
 Total energy for state   2:                 -1104.06105106 au
    Multiplicity: Triplet
    Trans. Mom.:  0.0000 X   0.0000 Y   0.0000 Z
    Strength   :     0.0000000000
    D(   73) --> V(    1) amplitude =  0.1794
    D(   75) --> V(    1) amplitude = -0.2100
    D(   75) --> V(    5) amplitude =  0.0709
    D(   76) --> V(    1) amplitude =  0.2612
    D(   77) --> V(    1) amplitude =  0.8044
    D(   77) --> V(    2) amplitude =  0.1169
    D(   78) --> V(    2) amplitude =  0.3413
    D(   78) --> V(    5) amplitude =  0.1022
    D(   78) --> V(   11) amplitude =  0.1069

 Excited state   3: excitation energy (eV) =       2.7225
 Total energy for state   3:                 -1104.05809013 au
    Multiplicity: Singlet
    Trans. Mom.: -3.5919 X  -3.1446 Y  -0.0422 Z
    Strength   :     1.5201956857
    D(   76) --> V(    1) amplitude =  0.1063
    D(   77) --> V(    1) amplitude =  0.1303
    D(   78) --> V(    1) amplitude =  0.9618

 Excited state   4: excitation energy (eV) =       2.7763
 Total energy for state   4:                 -1104.05611314 au
    Multiplicity: Triplet
    Trans. Mom.:  0.0000 X   0.0000 Y   0.0000 Z
    Strength   :     0.0000000000
    D(   76) --> V(    1) amplitude =  0.8859
    D(   76) --> V(    2) amplitude = -0.1819
    D(   76) --> V(    5) amplitude = -0.1154
    D(   76) --> V(   11) amplitude = -0.1107
    D(   77) --> V(    1) amplitude = -0.2973
    D(   77) --> V(    2) amplitude =  0.0865
    D(   78) --> V(    9) amplitude = -0.1344

 Excited state   5: excitation energy (eV) =       3.4891
 Total energy for state   5:                 -1104.02991777 au
    Multiplicity: Singlet
    Trans. Mom.:  0.4513 X   0.0931 Y  -0.1523 Z
    Strength   :     0.0201311106
    D(   76) --> V(    1) amplitude =  0.8456
    D(   76) --> V(    2) amplitude = -0.0900
    D(   77) --> V(    1) amplitude = -0.5009
    D(   78) --> V(    9) amplitude = -0.0736

 Excited state   6: excitation energy (eV) =       3.6062
 Total energy for state   6:                 -1104.02561505 au
    Multiplicity: Triplet
    Trans. Mom.:  0.0000 X   0.0000 Y   0.0000 Z
    Strength   :     0.0000000000
    D(   73) --> V(    1) amplitude =  0.0836
    D(   75) --> V(    1) amplitude = -0.4707
    D(   75) --> V(    2) amplitude = -0.1963
    D(   76) --> V(    1) amplitude = -0.1455
    D(   77) --> V(    1) amplitude = -0.4036
    D(   77) --> V(    5) amplitude = -0.1410
    D(   78) --> V(    2) amplitude =  0.6770
    D(   78) --> V(   11) amplitude =  0.1158

 Excited state   7: excitation energy (eV) =       3.7381
 Total energy for state   7:                 -1104.02076588 au
    Multiplicity: Singlet
    Trans. Mom.:  0.4002 X   0.4661 Y   0.0353 Z
    Strength   :     0.0346789997
    D(   75) --> V(    1) amplitude =  0.1875
    D(   76) --> V(    1) amplitude =  0.4804
    D(   77) --> V(    1) amplitude =  0.8108
    D(   77) --> V(    2) amplitude =  0.0932
    D(   78) --> V(    1) amplitude = -0.1514
    D(   78) --> V(    5) amplitude = -0.0825

 Excited state   8: excitation energy (eV) =       3.7436
 Total energy for state   8:                 -1104.02056615 au
    Multiplicity: Triplet
    Trans. Mom.:  0.0000 X   0.0000 Y   0.0000 Z
    Strength   :     0.0000000000
    D(   73) --> V(    1) amplitude = -0.1800
    D(   75) --> V(    1) amplitude =  0.6649
    D(   75) --> V(    2) amplitude = -0.1218
    D(   75) --> V(    5) amplitude =  0.1751
    D(   76) --> V(    2) amplitude =  0.0997
    D(   76) --> V(    5) amplitude =  0.0929
    D(   76) --> V(    9) amplitude = -0.1458
    D(   77) --> V(    2) amplitude =  0.3303
    D(   77) --> V(    5) amplitude =  0.1860
    D(   77) --> V(   11) amplitude = -0.1165
    D(   78) --> V(    2) amplitude =  0.4598
    D(   78) --> V(   11) amplitude = -0.0758

 Excited state   9: excitation energy (eV) =       4.0964
 Total energy for state   9:                 -1104.00759922 au
    Multiplicity: Triplet
    Trans. Mom.:  0.0000 X   0.0000 Y   0.0000 Z
    Strength   :     0.0000000000
    D(   74) --> V(    1) amplitude =  0.9148
    D(   74) --> V(    2) amplitude = -0.2496
    D(   74) --> V(    5) amplitude = -0.1439
    D(   74) --> V(   11) amplitude = -0.1982
    D(   74) --> V(   17) amplitude = -0.0863
    D(   74) --> V(   18) amplitude = -0.0792

 Excited state  10: excitation energy (eV) =       4.2899
 Total energy for state  10:                 -1104.00048811 au
    Multiplicity: Triplet
    Trans. Mom.:  0.0000 X   0.0000 Y   0.0000 Z
    Strength   :     0.0000000000
    D(   69) --> V(    1) amplitude =  0.0768
    D(   72) --> V(    1) amplitude =  0.2420
    D(   73) --> V(    1) amplitude =  0.3692
    D(   73) --> V(    2) amplitude =  0.1105
    D(   73) --> V(    5) amplitude =  0.1357
    D(   75) --> V(    1) amplitude =  0.2303
    D(   75) --> V(    2) amplitude =  0.2427
    D(   75) --> V(    5) amplitude = -0.1581
    D(   76) --> V(    2) amplitude =  0.0833
    D(   76) --> V(    5) amplitude = -0.2029
    D(   76) --> V(    9) amplitude = -0.0884
    D(   77) --> V(    2) amplitude =  0.2578
    D(   77) --> V(    5) amplitude = -0.5532
    D(   77) --> V(   11) amplitude =  0.1263
    D(   78) --> V(    5) amplitude = -0.2804
    D(   78) --> V(   11) amplitude =  0.1632

 Excited state  11: excitation energy (eV) =       4.3531
 Total energy for state  11:                 -1103.99816468 au
    Multiplicity: Singlet
    Trans. Mom.: -0.0052 X  -0.0003 Y   0.0016 Z
    Strength   :     0.0000031907
    D(   74) --> V(    1) amplitude =  0.9303
    D(   74) --> V(    2) amplitude = -0.2310
    D(   74) --> V(    5) amplitude = -0.1342
    D(   74) --> V(   11) amplitude = -0.1777

 Excited state  12: excitation energy (eV) =       4.4366
 Total energy for state  12:                 -1103.99509883 au
    Multiplicity: Singlet
    Trans. Mom.:  0.0944 X   0.1408 Y   0.0256 Z
    Strength   :     0.0031972285
    D(   75) --> V(    1) amplitude =  0.6442
    D(   75) --> V(    2) amplitude =  0.0897
    D(   75) --> V(    5) amplitude =  0.0872
    D(   76) --> V(    2) amplitude =  0.0876
    D(   77) --> V(    1) amplitude = -0.1856
    D(   77) --> V(    2) amplitude =  0.2222
    D(   78) --> V(    2) amplitude =  0.6419
    D(   78) --> V(    5) amplitude = -0.1389

 Excited state  13: excitation energy (eV) =       4.6811
 Total energy for state  13:                 -1103.98611049 au
    Multiplicity: Singlet
    Trans. Mom.:  0.0858 X   1.1593 Y   0.4910 Z
    Strength   :     0.1826219843
    D(   73) --> V(    1) amplitude =  0.0753
    D(   75) --> V(    1) amplitude = -0.5395
    D(   75) --> V(    2) amplitude = -0.1440
    D(   76) --> V(    2) amplitude = -0.1124
    D(   76) --> V(    9) amplitude = -0.1245
    D(   77) --> V(    2) amplitude = -0.2467
    D(   77) --> V(    5) amplitude =  0.0721
    D(   78) --> V(    2) amplitude =  0.7194
    D(   78) --> V(    5) amplitude =  0.0983

 Excited state  14: excitation energy (eV) =       4.9153
 Total energy for state  14:                 -1103.97750457 au
    Multiplicity: Singlet
    Trans. Mom.: -0.0406 X   0.0371 Y  -0.0969 Z
    Strength   :     0.0014953375
    D(   75) --> V(    4) amplitude = -0.0930
    D(   77) --> V(    3) amplitude = -0.0897
    D(   77) --> V(    4) amplitude =  0.1294
    D(   78) --> V(    3) amplitude =  0.8168
    D(   78) --> V(    4) amplitude = -0.4581
    D(   78) --> V(   10) amplitude = -0.0822
    D(   78) --> V(   13) amplitude =  0.0853
    D(   78) --> V(   15) amplitude = -0.1290
 
 ---------------------------------------------------

 Direct TDDFT calculation will be performed
 Exchange:     0.1900 Hartree-Fock + 0.3500 B88 + 0.4600 muB88 + LR-HF
 Correlation:  0.1900 VWN5 + 0.8100 LYP
 Using SG-1 standard quadrature grid
 ---------------------------------------------------
 Iter    Rts Conv    Rts Left    Ttl Dev     Max Dev
 ---------------------------------------------------
   1         0           7      0.001040    0.000169
   2         0           7      0.000315    0.000069
   3         0           7      0.000161    0.000041
   4         0           7      0.000091    0.000030
   5         0           7      0.000062    0.000028
   6         1           6      0.000036    0.000017
   7         3           4      0.000020    0.000009
[...]
      XZZZ     546.5236   YZZZ    -611.3517   ZZZZ    -861.5008
    5th-Order Moments (Debye-Ang^4)
       500   14146.9734    410  -14342.5185    320   -3965.4400
       230  -16105.4235    140  -16627.5797    050  -84102.3772
       401   -2072.2139    311     749.3873    221   -2330.4447
       131     362.5753    041   -7064.4056    302    3444.9118
       212   -2479.1339    122   -1591.6520    032   -8651.8591
       203   -2636.4549    113     784.1284    023   -3154.9625
       104    1560.4124    014   -2501.2638    005   -1576.6426
 -----------------------------------------------------------------
 -----------------------------------------------------------------
                 RPA Excited-State Multipoles, State    4   
                  LMN = < X^L Y^M Z^N >
 -----------------------------------------------------------------
    Charge (ESU x 10^10)
                -0.0000
    Dipole Moment (Debye)
         X      -9.6543      Y     -10.3190      Z      -1.0548
       Tot      14.1703
    Quadrupole Moments (Debye-Ang)
        XX     -95.1495     XY     -10.1448     YY    -168.4300
        XZ      -6.8029     YZ      -1.9896     ZZ    -126.8798
    Octopole Moments (Debye-Ang^2)
       XXX     -61.7538    XXY    -494.9098    XYY     -69.3733
       YYY   -1236.8412    XXZ     -14.2552    XYZ      -1.8007
       YYZ     -71.0543    XZZ     110.8432    YZZ    -317.7683
       ZZZ    -143.5703
    Hexadecapole Moments (Debye-Ang^3)
      XXXX   -4609.4305   XXXY    -736.4672   XXYY   -3159.5530
      XYYY   -2036.7383   YYYY  -10614.3043   XXXZ     162.9616
      XXYZ    -330.8793   XYYZ     117.0620   YYYZ    -698.3802
      XXZZ   -1277.1455   XYZZ    -303.4339   YYZZ   -1585.7443
      XZZZ     555.0773   YZZZ    -589.9917   ZZZZ    -852.6471
    5th-Order Moments (Debye-Ang^4)
       500   15511.1610    410  -14784.1799    320   -4439.2529
       230  -17423.4012    140  -19174.0123    050  -84275.0159
       401   -2499.2368    311     689.4430    221   -2549.2793
       131     157.2048    041   -6142.8181    302    3566.7645
       212   -2503.0124    122   -1550.3244    032   -8225.5371
       203   -2688.3796    113     795.6431    023   -3025.7641
       104    1586.6157    014   -2441.4520    005   -1562.3048
 -----------------------------------------------------------------
 -----------------------------------------------------------------
                 RPA Excited-State Multipoles, State    5   
                  LMN = < X^L Y^M Z^N >
 -----------------------------------------------------------------
    Charge (ESU x 10^10)
                -0.0000
    Dipole Moment (Debye)
         X      -7.8937      Y      -8.7329      Z      -1.0451
       Tot      11.8180
    Quadrupole Moments (Debye-Ang)
        XX     -94.2459     XY      -6.4778     YY    -161.8380
        XZ      -7.6253     YZ      -2.1258     ZZ    -126.7371
    Octopole Moments (Debye-Ang^2)
       XXX     -45.4482    XXY    -486.1437    XYY     -58.3638
       YYY   -1209.7388    XXZ     -17.4887    XYZ      -5.0074
       YYZ     -70.4656    XZZ     112.4259    YZZ    -315.4608
       ZZZ    -143.2230
    Hexadecapole Moments (Debye-Ang^3)
      XXXX   -4609.7326   XXXY    -700.6716   XXYY   -3130.1186
      XYYY   -2008.9523   YYYY  -10509.1218   XXXZ     159.6160
      XXYZ    -342.1517   XYYZ     103.4467   YYYZ    -690.4408
      XXZZ   -1277.7417   XYZZ    -300.2514   YYZZ   -1574.8500
      XZZZ     553.7912   YZZZ    -589.1950   ZZZZ    -852.5654
    5th-Order Moments (Debye-Ang^4)
       500   15807.1368    410  -14686.7574    320   -4329.8122
       230  -17344.7078    140  -19144.9756    050  -83882.6952
       401   -2565.5545    311     654.6698    221   -2597.2654
       131      98.7279    041   -6078.2617    302    3587.2846
       212   -2495.6178    122   -1538.1818    032   -8171.7381
       203   -2694.9529    113     790.8007    023   -3019.2024
       104    1590.4994    014   -2435.6136    005   -1560.4771
 -----------------------------------------------------------------
 -----------------------------------------------------------------
                 RPA Excited-State Multipoles, State    6   
                  LMN = < X^L Y^M Z^N >
 -----------------------------------------------------------------
    Charge (ESU x 10^10)
                -0.0000
    Dipole Moment (Debye)
         X     -14.5022      Y     -16.1332      Z      -1.8726
       Tot      21.7739
    Quadrupole Moments (Debye-Ang)
        XX     -89.2812     XY     -17.3972     YY    -197.0016
        XZ      -6.9470     YZ      -6.4103     ZZ    -128.4255
    Octopole Moments (Debye-Ang^2)
       XXX    -119.6386    XXY    -487.9593    XYY     -72.1277
       YYY   -1369.2589    XXZ       4.6196    XYZ       2.5957
       YYZ    -100.6022    XZZ     102.4061    YZZ    -333.3626
       ZZZ    -147.1365
    Hexadecapole Moments (Debye-Ang^3)
      XXXX   -4435.7692   XXXY    -817.6310   XXYY   -3092.5027
      XYYY   -1918.8084   YYYY  -11218.8009   XXXZ     126.0619
      XXYZ    -275.1462   XYYZ     146.4599   YYYZ    -883.8240
      XXZZ   -1256.7338   XYZZ    -324.2645   YYZZ   -1674.8344
      XZZZ     546.6972   YZZZ    -612.1464   ZZZZ    -859.4692
    5th-Order Moments (Debye-Ang^4)
       500   14069.4724    410  -14502.9057    320   -4373.5712
       230  -16777.2937    140  -17972.5740    050  -87120.7968
       401   -1999.8394    311     727.5406    221   -2338.9830
       131     294.6357    041   -7322.4999    302    3412.6161
       212   -2485.6510    122   -1624.8594    032   -8729.4829
       203   -2629.2728    113     780.0514    023   -3165.7514
       104    1553.9786    014   -2503.1793    005   -1580.6326
 -----------------------------------------------------------------
 -----------------------------------------------------------------
                 RPA Excited-State Multipoles, State    7   
                  LMN = < X^L Y^M Z^N >
 -----------------------------------------------------------------
    Charge (ESU x 10^10)
                -0.0000
    Dipole Moment (Debye)
         X     -20.3778      Y     -17.6000      Z      -0.2429
       Tot      26.9272
    Quadrupole Moments (Debye-Ang)
        XX     -69.5223     XY     -22.3180     YY    -203.1130
        XZ     -10.4941     YZ      -5.6346     ZZ    -128.4085
    Octopole Moments (Debye-Ang^2)
       XXX    -210.6247    XXY    -498.7842    XYY    -102.6420
       YYY   -1413.9587    XXZ      10.2093    XYZ      -0.6722
       YYZ    -102.0343    XZZ      99.1680    YZZ    -334.7496
       ZZZ    -144.1295
    Hexadecapole Moments (Debye-Ang^3)
      XXXX   -4108.4015   XXXY    -783.9227   XXYY   -3095.5681
      XYYY   -2033.4023   YYYY  -11479.4219   XXXZ     134.0700
      XXYZ    -286.3333   XYYZ     129.6011   YYYZ    -907.1405
      XXZZ   -1258.6870   XYZZ    -325.7123   YYZZ   -1680.9495
      XZZZ     544.1125   YZZZ    -611.5738   ZZZZ    -860.5235
    5th-Order Moments (Debye-Ang^4)
       500   12771.6943    410  -15004.8755    320   -4586.4649
       230  -16966.1846    140  -18588.6122    050  -88700.2985
       401   -2216.1709    311     819.3846    221   -2348.9191
       131     224.1217    041   -7495.7644    302    3470.0889
       212   -2522.2265    122   -1649.6897    032   -8778.5695
       203   -2650.9952    113     780.2627    023   -3171.0585
       104    1555.8538    014   -2507.0383    005   -1570.5608
 -----------------------------------------------------------------
 -----------------------------------------------------------------
                 RPA Excited-State Multipoles, State    8   
                  LMN = < X^L Y^M Z^N >
 -----------------------------------------------------------------
    Charge (ESU x 10^10)
                 0.0000
    Dipole Moment (Debye)
         X     -22.6508      Y     -18.1913      Z       0.4329
       Tot      29.0545
    Quadrupole Moments (Debye-Ang)
        XX     -63.7855     XY     -30.6701     YY    -206.2270
        XZ     -14.2743     YZ      -2.7350     ZZ    -126.5260
    Octopole Moments (Debye-Ang^2)
       XXX    -256.2231    XXY    -486.0489    XYY    -134.6094
       YYY   -1431.9338    XXZ      28.0326    XYZ     -11.0479
       YYZ     -92.5565    XZZ      90.6871    YZZ    -329.8884
       ZZZ    -139.6410
    Hexadecapole Moments (Debye-Ang^3)
      XXXX   -3956.5632   XXXY    -965.2156   XXYY   -3108.5710
      XYYY   -2167.8010   YYYY  -11564.1185   XXXZ      37.5989
      XXYZ    -237.2261   XYYZ     112.9990   YYYZ    -860.7223
      XXZZ   -1217.6665   XYZZ    -345.3743   YYZZ   -1666.5521
      XZZZ     524.1957   YZZZ    -599.6327   ZZZZ    -849.8515
    5th-Order Moments (Debye-Ang^4)
       500   11742.5853    410  -14409.6563    320   -5105.5264
       230  -17263.1787    140  -19313.3591    050  -89147.1378
       401   -1700.9738    311     555.2235    221   -2284.9658
       131     183.1743    041   -7236.5267    302    3242.6431
       212   -2442.7681    122   -1687.6472    032   -8709.2311
       203   -2554.3386    113     743.2324    023   -3132.0889
       104    1509.2859    014   -2481.7158    005   -1541.3514
 -----------------------------------------------------------------
 -----------------------------------------------------------------
                 RPA Excited-State Multipoles, State    9   
                  LMN = < X^L Y^M Z^N >
 -----------------------------------------------------------------
    Charge (ESU x 10^10)
                 0.0000
    Dipole Moment (Debye)
         X      -5.4276      Y      -5.5375      Z      -0.6561
       Tot       7.7816
    Quadrupole Moments (Debye-Ang)
        XX     -74.5805     XY      30.1569     YY    -114.5208
        XZ      -1.8091     YZ       1.6749     ZZ    -129.7979
    Octopole Moments (Debye-Ang^2)
       XXX       0.0960    XXY    -347.4131    XYY     227.4741
       YYY    -794.9631    XXZ       4.7402    XYZ      29.5761
       YYZ     -42.1951    XZZ     109.2387    YZZ    -330.0328
       ZZZ    -147.0549
    Hexadecapole Moments (Debye-Ang^3)
      XXXX   -4348.0904   XXXY    -236.7059   XXYY   -2129.9486
      XYYY      13.7535   YYYY   -7357.1428   XXXZ     218.3914
      XXYZ    -221.0264   XYYZ     315.1864   YYYZ    -483.2904
      XXZZ   -1272.5984   XYZZ    -299.6858   YYZZ   -1633.3568
      XZZZ     557.1192   YZZZ    -607.6191   ZZZZ    -866.3028
    5th-Order Moments (Debye-Ang^4)
       500   16187.5141    410  -13051.8605    320    -983.7814
       230  -10503.6802    140   -5409.4921    050  -61394.6295
       401   -2270.5462    311    1038.9106    221   -1876.9701
       131    1428.2597    041   -4592.3187    302    3568.6984
       212   -2460.0349    122   -1476.6676    032   -8395.8619
       203   -2668.2537    113     811.3622    023   -3117.5404
       104    1573.9777    014   -2509.2495    005   -1585.4444
 -----------------------------------------------------------------
 -----------------------------------------------------------------
                 RPA Excited-State Multipoles, State   10   
                  LMN = < X^L Y^M Z^N >
 -----------------------------------------------------------------
    Charge (ESU x 10^10)
                -0.0000
    Dipole Moment (Debye)
         X     -15.9268      Y     -16.8433      Z      -1.6707
       Tot      23.2411
    Quadrupole Moments (Debye-Ang)
        XX     -83.5962     XY     -15.3971     YY    -196.9159
        XZ      -6.6583     YZ      -6.3327     ZZ    -128.8588
    Octopole Moments (Debye-Ang^2)
       XXX    -143.0239    XXY    -493.9026    XYY     -68.0162
       YYY   -1365.5602    XXZ       3.5140    XYZ       4.6701
       YYZ     -99.8002    XZZ     102.3671    YZZ    -335.0273
       ZZZ    -147.2575
    Hexadecapole Moments (Debye-Ang^3)
      XXXX   -4341.8743   XXXY    -763.0466   XXYY   -3065.5406
      XYYY   -1868.6199   YYYY  -11169.2447   XXXZ     145.6902
      XXYZ    -279.1769   XYYZ     153.0382   YYYZ    -881.1007
      XXZZ   -1262.4445   XYZZ    -322.4287   YYZZ   -1680.6194
      XZZZ     549.7321   YZZZ    -614.2363   ZZZZ    -862.5934
    5th-Order Moments (Debye-Ang^4)
       500   13752.6709    410  -14709.9303    320   -4272.6012
       230  -16595.5488    140  -17603.2242    050  -86709.9656
       401   -2110.5013    311     794.0371    221   -2322.5686
       131     337.4832    041   -7308.7113    302    3447.3160
       212   -2507.9291    122   -1627.0408    032   -8761.6497
       203   -2649.0984    113     786.4473    023   -3175.8125
       104    1561.8997    014   -2511.9637    005   -1585.3553
 -----------------------------------------------------------------
 -----------------------------------------------------------------
                 RPA Excited-State Multipoles, State   11   
                  LMN = < X^L Y^M Z^N >
 -----------------------------------------------------------------
    Charge (ESU x 10^10)
                 0.0000
    Dipole Moment (Debye)
         X      -4.2801      Y      -4.3066      Z      -0.5442
       Tot       6.0961
    Quadrupole Moments (Debye-Ang)
        XX     -73.9520     XY      34.4850     YY    -106.3733
        XZ      -1.3906     YZ       2.4097     ZZ    -129.8988
    Octopole Moments (Debye-Ang^2)
       XXX      12.8563    XXY    -335.7510    XYY     252.6729
       YYY    -743.0811    XXZ       4.6174    XYZ      31.6475
       YYZ     -37.2310    XZZ     110.0378    YZZ    -329.5108
       ZZZ    -147.0032
    Hexadecapole Moments (Debye-Ang^3)
      XXXX   -4355.7817   XXXY    -195.1411   XXYY   -2058.4707
      XYYY     163.2276   YYYY   -7034.6126   XXXZ     225.4776
      XXYZ    -216.9068   XYYZ     327.6747   YYYZ    -451.1230
      XXZZ   -1274.2226   XYZZ    -297.9256   YYZZ   -1629.4932
      XZZZ     557.6431   YZZZ    -607.1162   ZZZZ    -866.8305
    5th-Order Moments (Debye-Ang^4)
       500   16401.3553    410  -12946.5395    320    -747.7073
       230  -10061.8788    140   -4496.5265    050  -59386.0990
       401   -2293.4805    311    1058.6044    221   -1844.8860
       131    1507.7552    041   -4384.3578    302    3581.1657
       212   -2458.6614    122   -1468.1067    032   -8370.4886
       203   -2671.8085    113     812.2484    023   -3113.4293
       104    1575.4932    014   -2509.1520    005   -1585.4759
 -----------------------------------------------------------------
 -----------------------------------------------------------------
                 RPA Excited-State Multipoles, State   12   
                  LMN = < X^L Y^M Z^N >
 -----------------------------------------------------------------
    Charge (ESU x 10^10)
                -0.0000
    Dipole Moment (Debye)
         X     -14.0501      Y     -14.5348      Z      -1.3472
       Tot      20.2603
    Quadrupole Moments (Debye-Ang)
        XX     -81.2600     XY      -9.9278     YY    -185.3117
        XZ      -7.2432     YZ      -5.6365     ZZ    -128.7396
    Octopole Moments (Debye-Ang^2)
       XXX    -136.2980    XXY    -480.1974    XYY     -41.9456
       YYY   -1302.0063    XXZ       5.5445    XYZ       4.9153
       YYZ     -94.9445    XZZ     104.1788    YZZ    -331.8262
       ZZZ    -146.0346
    Hexadecapole Moments (Debye-Ang^3)
      XXXX   -4267.4494   XXXY    -726.2710   XXYY   -3007.0900
      XYYY   -1747.8156   YYYY  -10818.7797   XXXZ     124.1682
      XXYZ    -280.4656   XYYZ     156.0748   YYYZ    -846.0922
      XXZZ   -1256.9933   XYZZ    -316.4700   YYZZ   -1661.7766
      XZZZ     547.9005   YZZZ    -609.8448   ZZZZ    -861.2613
    5th-Order Moments (Debye-Ang^4)
       500   13567.5788    410  -14503.3219    320   -4074.7633
       230  -16300.5222    140  -16998.1519    050  -84708.6228
       401   -2010.2089    311     764.2578    221   -2330.1191
       131     356.4020    041   -7074.7534    302    3432.4518
       212   -2486.0991    122   -1595.6332    032   -8648.7592
       203   -2636.0706    113     787.1744    023   -3148.6812
       104    1563.3940    014   -2498.1534    005   -1576.4446
 -----------------------------------------------------------------
 -----------------------------------------------------------------
                 RPA Excited-State Multipoles, State   13   
                  LMN = < X^L Y^M Z^N >
 -----------------------------------------------------------------
    Charge (ESU x 10^10)
                 0.0000
    Dipole Moment (Debye)
         X     -12.7846      Y     -12.3344      Z      -0.7916
       Tot      17.7823
    Quadrupole Moments (Debye-Ang)
        XX     -84.6406     XY      -5.8314     YY    -173.2280
        XZ      -5.4137     YZ      -3.9194     ZZ    -129.3320
    Octopole Moments (Debye-Ang^2)
       XXX    -104.3613    XXY    -480.5974    XYY     -22.1921
       YYY   -1235.4861    XXZ      -3.6005    XYZ       9.9126
       YYZ     -85.0867    XZZ     108.3911    YZZ    -330.6296
       ZZZ    -145.9026
    Hexadecapole Moments (Debye-Ang^3)
      XXXX   -4410.2045   XXXY    -636.8228   XXYY   -2971.5906
      XYYY   -1640.6134   YYYY  -10444.6713   XXXZ     187.0084
      XXYZ    -298.0641   XYYZ     170.3121   YYYZ    -789.3084
      XXZZ   -1280.1255   XYZZ    -307.3297   YYZZ   -1648.8160
      XZZZ     557.5848   YZZZ    -607.1933   ZZZZ    -865.3335
    5th-Order Moments (Debye-Ang^4)
       500   14558.9141    410  -14825.2528    320   -3844.7898
       230  -16048.1452    140  -16376.0385    050  -82520.6729
       401   -2403.6828    311     893.0353    221   -2336.1297
       131     430.7638    041   -6725.2891    302    3576.5676
       212   -2523.0462    122   -1572.9217    032   -8565.2446
       203   -2689.0140    113     806.0685    023   -3124.3871
       104    1585.2949    014   -2498.9529    005   -1580.5916
 -----------------------------------------------------------------
 -----------------------------------------------------------------
                 RPA Excited-State Multipoles, State   14   
                  LMN = < X^L Y^M Z^N >
 -----------------------------------------------------------------
    Charge (ESU x 10^10)
                 0.0000
    Dipole Moment (Debye)
         X     -19.7183      Y     -21.2030      Z      -2.0026
       Tot      29.0239
    Quadrupole Moments (Debye-Ang)
        XX    -109.4679     XY     -35.9187     YY    -247.1935
        XZ      -7.4185     YZ      -9.1585     ZZ    -144.4344
    Octopole Moments (Debye-Ang^2)
       XXX    -258.0895    XXY    -614.2693    XYY    -200.8643
       YYY   -1809.7810    XXZ       3.4766    XYZ      -0.5145
       YYZ    -130.5431    XZZ      71.7795    YZZ    -412.5412
       ZZZ    -164.1036
    Hexadecapole Moments (Debye-Ang^3)
      XXXX   -5156.4056   XXXY   -1444.4320   XXYY   -3867.1766
      XYYY   -2916.1980   YYYY  -14996.6032   XXXZ     154.6458
      XXYZ    -293.6272   XYYZ     113.1890   YYYZ   -1193.9510
      XXZZ   -1395.5384   XYZZ    -483.5146   YYZZ   -2152.7464
      XZZZ     534.9551   YZZZ    -724.9253   ZZZZ   -1038.4176
    5th-Order Moments (Debye-Ang^4)
       500    9698.7846    410  -18576.5728    320   -8303.4568
       230  -22152.5128    140  -26145.2938    050 -119340.5020
       401   -1943.4025    311     813.9326    221   -2478.4278
       131     -59.7589    041  -10318.6505    302    2942.6546
       212   -3166.9833    122   -2585.2823    032  -11897.7942
       203   -2684.7228    113     660.0292    023   -3950.5669
       104    1269.7633    014   -3384.7848    005   -1879.8745
 -----------------------------------------------------------------
 Total job time:  4482.85s(wall), 61754.57s(cpu) 
 Fri Jan 31 02:33:03 2025

        *************************************************************
        *                                                           *
        *  Thank you very much for using Q-Chem.  Have a nice day.  *
        *                                                           *
        *************************************************************


