
Running Job 1 of 1 Delphinidin_Q2_tddft_full.in
qchem Delphinidin_Q2_tddft_full.in_1460752.0 /data/brussel/103/vsc10365/activedata/TDDFTAnthocyanidines/qchem1460752/ 1
/apps/brussel/RL8/skylake/software/Q-Chem/6.2.0/exe/qcprog.exe_s Delphinidin_Q2_tddft_full.in_1460752.0 /data/brussel/103/vsc10365/activedata/TDDFTAnthocyanidines/qchem1460752/
                  Welcome to Q-Chem
     A Quantum Leap Into The Future Of Chemistry


 Q-Chem 6.2, Q-Chem, Inc., Pleasanton, CA (2024)

 License issued to: SRG Prof. Dr. Frank De Proft, Vrije Universiteit Brussel

 E. Epifanovsky,  A. T. B. Gilbert,  Xintian Feng,  Joonho Lee,  Yuezhi Mao,  
 N. Mardirossian,  P. Pokhilko,  A. White,  M. Wormit,  M. P. Coons,  
 A. L. Dempwolff,  Zhengting Gan,  D. Hait,  P. R. Horn,  L. D. Jacobson,  
 I. Kaliman,  J. Kussmann,  A. W. Lange,  Ka Un Lao,  D. S. Levine,  Jie Liu,  
 S. C. McKenzie,  A. F. Morrison,  K. D. Nanda,  F. Plasser,  D. R. Rehn,  
 M. L. Vidal,  Zhi-Qiang You,  Ying Zhu,  Huseyin Aksu,  B. Alam,  
 B. Albrecht,  A. Aldossary,  E. Alguire,  J. H. Andersen,  
 J. E. Arias-Martinez,  V. Athavale,  D. Barton,  K. Begam,  A. Behn,  
 N. Bellonzi,  Y. A. Bernard,  E. J. Berquist,  H. Burton,  A. Carreras,  
 K. Carter-Fenk,  Mathew Chow,  Romit Chakraborty,  Chandrima Chakravarty,  
 Junhan Chen,  A. D. Chien,  K. D. Closser,  V. Cofer-Shabica,  L. Cunha,  
 S. Dasgupta,  Jia Deng,  Joseph Dickinson,  M. de Wergifosse,  
 M. Diedenhofen,  Hainam Do,  Wenjie Dou,  S. Ehlert,  Po-Tung Fang,  
 S. Fatehi,  Qingguo Feng,  Jonathan Fetherolf,  T. Friedhoff,  
 Thomas Froitzheim,  Sarai Folkestad,  B. Ganoe,  J. Gayvert,  Qinghui Ge,  
 G. Gidofalvi,  M. Gimferrer,  M. Goldey,  Montgomery Gray,  J. Gomes,  
 C. Gonzalez-Espinoza,  S. Gulania,  A. Gunina,  J. A. Gyamfi,  
 M. W. D. Hanson-Heine,  P. H. P. Harbach,  A. W. Hauser,  M. F. Herbst,  
 M. Hernandez Vera,  M. Hodecker,  Z. C. Holden,  S. Houck,  Xunkun Huang,  
 Kerwin Hui,  B. C. Huynh,  K. Ikeda,  M. Ivanov,  Nayanthara K. Jayadev,  
 Hyunjun Ji,  Zuxin Jin,  Hanjie Jiang,  Subrata Jana,  B. Kaduk,  
 S. Kaehler,  R. Kang,  K. Khistyaev,  Jaehoon Kim,  Yongbin Kim,  
 P. Klunzinger,  Z. Koczor-Benda,  Joong Hoon Koh,  D. Kosenkov,  
 Saikiran Kotaru,  L. Koulias,  T. Kowalczyk,  C. M. Krauter,  K. Kue,  
 A. Kunitsa,  T. Kus,  A. Landau,  K. V. Lawler,  D. Lefrancois,  S. Lehtola,  
 Rain Li,  Shaozhi Li,  Tao E. Li,  Yi-Pei Li,  Jiashu Liang,  M. Liebenthal,  
 Hung-Hsuan Lin,  You-Sheng Lin,  Fenglai Liu,  Kuan-Yu Liu,  Xiao Liu,  
 M. Loipersberger,  A. Luenser,  C. Malbon,  Aniket Mandal,  Manisha,  
 A. Manjanath,  P. Manohar,  E. Mansoor,  S. F. Manzer,  Shan-Ping Mao,  
 A. V. Marenich,  T. Markovich,  S. Mason,  F. Matz,  S. A. Maurer,  
 Samuel May,  Alexandra McIsaac,  P. F. McLaughlin,  M. F. S. J. Menger,  
 J.-M. Mewes,  S. A. Mewes,  P. Morgante,  Mohammad Mostafanejad,  
 Madhubani Mukherjee,  J. W. Mullinax,  Quyen Nguyen,  Avik Kumar Ojha,  
 K. J. Oosterbaan,  Eno Paenurk,  Xiaoliang Pan,  G. Paran,  V. Parravicini,  
 Alexander C. Paul,  Suranjan K. Paul,  F. Pavosevic,  Zheng Pei,  S. Prager,  
 E. I. Proynov,  E. Ramos,  B. Rana,  A. E. Rask,  A. Rettig,  R. M. Richard,  
 F. Rob,  E. Rossomme,  T. Scheele,  M. Scheurer,  M. Schneider,  
 P. E. Schneider,  Tim K. Schramm,  N. Sergueev,  S. M. Sharada,  
 Hengyuan Shen,  W. Skomorowski,  D. W. Small,  C. J. Stein,  
 Alistair J. Sterling,  Yingli Su,  Yu-Chuan Su,  E. J. Sundstrom,  
 J. Talbot,  Zhen Tao,  J. Thirman,  Hung-Yi Tsai,  T. Tsuchimochi,  
 N. M. Tubman,  C. Utku,  S. P. Veccham,  O. Vydrov,  Rahel Weiss,  
 J. Wenzel,  Jonathan Wong,  J. Witte,  H. Wu,  Yanze Wu,  A. Yamada,  
 Chou-Hsun Yang,  Kun Yao,  S. Yeganeh,  S. R. Yost,  Qi Yu,  A. Zech,  
 F. Zeller,  Chongxiao Zhao,  Igor Ying Zhang,  Xing Zhang,  Yu Zhang,  
 D. Zuev,  A. Aspuru-Guzik,  A. T. Bell,  N. A. Besley,  K. B. Bravaya,  
 B. R. Brooks,  D. Casanova,  Jeng-Da Chai,  Hsing-Ta Chen,  S. Coriani,  
 C. J. Cramer,  A. E. DePrince, III,  R. A. DiStasio Jr.,  A. Dreuw,  
 B. D. Dunietz,  T. R. Furlani,  W. A. Goddard III,  S. Grimme,  
 S. Hammes-Schiffer,  T. Head-Gordon,  W. J. Hehre,  Chao-Ping Hsu,  
 T.-C. Jagau,  Yousung Jung,  A. Klamt,  Jing Kong,  D. S. Lambrecht,  
 Xiangyuan Li,  WanZhen Liang,  N. J. Mayhall,  C. W. McCurdy,  J. B. Neaton,  
 T. Neudecker,  C. Ochsenfeld,  J. A. Parkhill,  R. Peverati,  
 V. A. Rassolov,  Haisheng Ren,  Yihan Shao,  L. V. Slipchenko,  
 R. P. Steele,  J. E. Subotnik,  A. J. W. Thom,  A. Tkatchenko,  
 D. G. Truhlar,  T. Van Voorhis,  Fan Wang,  T. A. Wesolowski,  K. B. Whaley,  
 H. L. Woodcock III,  P. M. Zimmerman,  S. Faraji,  P. M. W. Gill,  
 M. Head-Gordon,  J. M. Herbert,  A. I. Krylov

 Contributors to earlier versions of Q-Chem not listed above: 
 R. D. Adamson,  B. Austin,  R. Baer,  J. Baker,  G. J. O. Beran,  
 K. Brandhorst,  S. T. Brown,  E. F. C. Byrd,  Arup K. Chakraborty,  
 G. K. L. Chan,  Chun-Min Chang,  Yunqing Chen,  C.-L. Cheng,  
 Siu Hung Chien,  D. M. Chipman,  D. L. Crittenden,  H. Dachsel,  
 R. J. Doerksen,  A. D. Dutoi,  R. G. Edgar,  J. Fosso-Tande,  
 L. Fusti-Molnar,  D. Ghosh,  A. Ghysels,  A. Golubeva-Zadorozhnaya,  
 J. Gonthier,  M. S. Gordon,  S. R. Gwaltney,  G. Hawkins,  J. E. Herr,  
 A. Heyden,  S. Hirata,  E. G. Hohenstein,  G. Kedziora,  F. J. Keil,  
 C. Kelley,  Jihan Kim,  R. A. King,  R. Z. Khaliullin,  P. P. Korambath,  
 W. Kurlancheek,  A. Laurent,  A. M. Lee,  M. S. Lee,  S. V. Levchenko,  
 Ching Yeh Lin,  D. Liotard,  E. Livshits,  R. C. Lochan,  I. Lotan,  
 L. A. Martinez-Martinez,  P. E. Maslen,  N. Nair,  D. P. O'Neill,  
 D. Neuhauser,  E. Neuscamman,  C. M. Oana,  R. Olivares-Amaya,  R. Olson,  
 T. M. Perrine,  B. Peters,  P. A. Pieniazek,  A. Prociuk,  Y. M. Rhee,  
 J. Ritchie,  M. A. Rohrdanz,  E. Rosta,  N. J. Russ,  H. F. Schaefer III,  
 M. W. Schmidt,  N. E. Schultz,  S. Sharma,  N. Shenvi,  C. D. Sherrill,  
 A. C. Simmonett,  A. Sodt,  T. Stein,  D. Stuck,  K. S. Thanthiriwatte,  
 V. Vanovschi,  L. Vogt,  Tao Wang,  A. Warshel,  M. A. Watson,  
 C. F. Williams,  Q. Wu,  X. Xu,  Jun Yang,  W. Zhang,  Yan Zhao

   Please cite Q-Chem as follows:
  "Software for the frontiers of quantum chemistry:
   An overview of developments in the Q-Chem 5 package"
   J. Chem. Phys. 155, 084801 (2021)
   https://doi.org/10.1063/5.0055522 (open access)

 Q-Chem 6.2.0 for Intel X86 EM64T Linux

 Parts of Q-Chem use Armadillo 9.900.5 (Nocturnal Misbehaviour).
 http://arma.sourceforge.net/

 Q-Chem begins on Fri Jan 31 01:22:26 2025  

 Host: 
0

     Scratch files written to /data/brussel/103/vsc10365/activedata/TDDFTAnthocyanidines/qchem1460752//
 May224 |scratch|qcdevops|jenkins|workspace|build_RNUM -1
 Processing $rem in /apps/brussel/RL8/skylake/software/Q-Chem/6.2.0/config/preferences:
 Processing $rem in /user/brussel/103/vsc10365/.qchemrc:
 Symmetry turned off for PCM/SM12/SMD calculation

 Checking the input file for inconsistencies... 	...done.

--------------------------------------------------------------
User input:
--------------------------------------------------------------
$comment
TDDFT calculation of delphinidin Q2 structure
nprocs=16
mem=64gb
$end

$molecule
0 1
C   -4.6721086    0.8949886    1.9035256
C   -4.7047120   -0.2965403    1.1498653
C   -3.6684150   -0.6046353    0.3046520
C   -2.5500312    0.2738711    0.1772038
C   -2.5772723    1.4494221    0.9547156
C   -3.6142642    1.7804142    1.8175491
C   -1.4495118    0.0524543   -0.6482336
C   -0.3593730    0.9463400   -0.7462153
C   -0.4639068    2.1259081    0.0714065
O   -1.5426479    2.3031404    0.8573928
C    0.4872911    3.2119789    0.1754697
C    1.6388029    3.2566104   -0.6339364
C    2.5257505    4.3111902   -0.5205970
C    2.3036531    5.3395590    0.3946944
C    1.1612979    5.2987475    1.2012853
C    0.2637432    4.2562286    1.0963526
O   -5.6932225    1.2103118    2.7486629
H   -5.5508113   -0.9674202    1.2422884
O   -3.6363754   -1.7365597   -0.4470427
H   -3.5898841    2.6925712    2.3959605
H   -1.4043788   -0.8451716   -1.2514077
O    0.6447734    0.7083801   -1.5092409
H    1.8274778    2.4699343   -1.3463990
O    3.6637592    4.4259590   -1.2804919
O    3.1560579    6.3921579    0.5426742
O    0.9192587    6.2969885    2.1113686
H   -0.6038775    4.2602848    1.7384869
H   -6.3714243    0.5194548    2.7313478
H   -4.4314234   -2.2666001   -0.2890222
H    3.9114935    6.2911598   -0.0564476
H    3.7403933    3.6657482   -1.8742793
H    1.6352076    6.9485536    2.0802913
$end

$rem
BASIS  =  def2-ma-TZVP
MEM_STATIC  =  2000
MEM_TOTAL  =  64000
METHOD  =  CAM-B3LYP
SOLVENT_METHOD = pcm
SYMMETRY_IGNORE  =  1
CIS_N_ROOTS = 7
CIS_SINGLETS = true
CIS_TRIPLETS = true
CISTR_PRINT = true
RPA = true
PRINT_ORBITALS = true
SCF_PRINT = 1
SCF_FINAL_PRINT = 2
PRINT_GENERAL_BASIS = true
CISTR_PRINT = true
PRINT_RADII_GYRE = true
MULTIPOLE_ORDER = 5
CIS_AMPL_PRINT = 5
CIS_AMPL_ANAL = true
STATE_ANALYSIS = true
$end

$pcm
Theory   CPCM
Method   SWIG
Solver   Inversion
Radii    Bondi
$end

$solvent
Dielectric         78.39
OpticalDielectric  1.777849
$end


--------------------------------------------------------------
 ----------------------------------------------------------------
             Standard Nuclear Orientation (Angstroms)
    I     Atom           X                Y                Z
 ----------------------------------------------------------------
    1      C      -4.6721086000     0.8949886000     1.9035256000
    2      C      -4.7047120000    -0.2965403000     1.1498653000
    3      C      -3.6684150000    -0.6046353000     0.3046520000
    4      C      -2.5500312000     0.2738711000     0.1772038000
    5      C      -2.5772723000     1.4494221000     0.9547156000
    6      C      -3.6142642000     1.7804142000     1.8175491000
    7      C      -1.4495118000     0.0524543000    -0.6482336000
    8      C      -0.3593730000     0.9463400000    -0.7462153000
    9      C      -0.4639068000     2.1259081000     0.0714065000
   10      O      -1.5426479000     2.3031404000     0.8573928000
   11      C       0.4872911000     3.2119789000     0.1754697000
   12      C       1.6388029000     3.2566104000    -0.6339364000
   13      C       2.5257505000     4.3111902000    -0.5205970000
   14      C       2.3036531000     5.3395590000     0.3946944000
   15      C       1.1612979000     5.2987475000     1.2012853000
   16      C       0.2637432000     4.2562286000     1.0963526000
   17      O      -5.6932225000     1.2103118000     2.7486629000
   18      H      -5.5508113000    -0.9674202000     1.2422884000
   19      O      -3.6363754000    -1.7365597000    -0.4470427000
   20      H      -3.5898841000     2.6925712000     2.3959605000
   21      H      -1.4043788000    -0.8451716000    -1.2514077000
   22      O       0.6447734000     0.7083801000    -1.5092409000
   23      H       1.8274778000     2.4699343000    -1.3463990000
   24      O       3.6637592000     4.4259590000    -1.2804919000
   25      O       3.1560579000     6.3921579000     0.5426742000
   26      O       0.9192587000     6.2969885000     2.1113686000
   27      H      -0.6038775000     4.2602848000     1.7384869000
   28      H      -6.3714243000     0.5194548000     2.7313478000
   29      H      -4.4314234000    -2.2666001000    -0.2890222000
   30      H       3.9114935000     6.2911598000    -0.0564476000
   31      H       3.7403933000     3.6657482000    -1.8742793000
   32      H       1.6352076000     6.9485536000     2.0802913000
 ----------------------------------------------------------------
 Nuclear Repulsion Energy =        1700.97312298 hartrees
 There are       78 alpha and       78 beta electrons
 Requested basis set is def2-ma-TZVP
 Basis set in general basis input format:
-----------------------------------------------------------------------
$basis
C    0
S    6    1.000000
   1.35753497E+04    2.22458144E-04 
   2.03523337E+03    1.72327383E-03 
   4.63225624E+02    8.92557153E-03 
   1.31200196E+02    3.57279845E-02 
   4.28530159E+01    1.10762599E-01 
   1.55841858E+01    2.42956276E-01 
S    2    1.000000
   6.20671385E+00    4.14402634E-01 
   2.57648965E+00    2.37449687E-01 
S    1    1.000000
   5.76963394E-01    1.00000000E+00 
S    1    1.000000
   2.29728314E-01    1.00000000E+00 
S    1    1.000000
   9.51644400E-02    1.00000000E+00 
S    1    1.000000
   4.84754014E-02    1.00000000E+00 
P    4    1.000000
   3.46972322E+01    5.33336578E-03 
   7.95826228E+00    3.58641091E-02 
   2.37808269E+00    1.42158733E-01 
   8.14332082E-01    3.42704718E-01 
P    1    1.000000
   2.88875473E-01    4.64458224E-01 
P    1    1.000000
   1.00568237E-01    2.49557899E-01 
D    1    1.000000
   1.09700000E+00    1.00000000E+00 
D    1    1.000000
   3.18000000E-01    1.00000000E+00 
F    1    1.000000
   7.61000000E-01    1.00000000E+00 
****
C    0
S    6    1.000000
   1.35753497E+04    2.22458144E-04 
   2.03523337E+03    1.72327383E-03 
   4.63225624E+02    8.92557153E-03 
   1.31200196E+02    3.57279845E-02 
   4.28530159E+01    1.10762599E-01 
   1.55841858E+01    2.42956276E-01 
S    2    1.000000
   6.20671385E+00    4.14402634E-01 
   2.57648965E+00    2.37449687E-01 
S    1    1.000000
   5.76963394E-01    1.00000000E+00 
S    1    1.000000
   2.29728314E-01    1.00000000E+00 
S    1    1.000000
   9.51644400E-02    1.00000000E+00 
S    1    1.000000
   4.84754014E-02    1.00000000E+00 
P    4    1.000000
   3.46972322E+01    5.33336578E-03 
   7.95826228E+00    3.58641091E-02 
   2.37808269E+00    1.42158733E-01 
   8.14332082E-01    3.42704718E-01 
P    1    1.000000
   2.88875473E-01    4.64458224E-01 
P    1    1.000000
   1.00568237E-01    2.49557899E-01 
D    1    1.000000
   1.09700000E+00    1.00000000E+00 
D    1    1.000000
   3.18000000E-01    1.00000000E+00 
F    1    1.000000
   7.61000000E-01    1.00000000E+00 
****
C    0
S    6    1.000000
   1.35753497E+04    2.22458144E-04 
   2.03523337E+03    1.72327383E-03 
   4.63225624E+02    8.92557153E-03 
   1.31200196E+02    3.57279845E-02 
   4.28530159E+01    1.10762599E-01 
   1.55841858E+01    2.42956276E-01 
S    2    1.000000
   6.20671385E+00    4.14402634E-01 
   2.57648965E+00    2.37449687E-01 
S    1    1.000000
   5.76963394E-01    1.00000000E+00 
S    1    1.000000
   2.29728314E-01    1.00000000E+00 
S    1    1.000000
   9.51644400E-02    1.00000000E+00 
S    1    1.000000
   4.84754014E-02    1.00000000E+00 
P    4    1.000000
   3.46972322E+01    5.33336578E-03 
   7.95826228E+00    3.58641091E-02 
   2.37808269E+00    1.42158733E-01 
   8.14332082E-01    3.42704718E-01 
P    1    1.000000
   2.88875473E-01    4.64458224E-01 
P    1    1.000000
   1.00568237E-01    2.49557899E-01 
D    1    1.000000
   1.09700000E+00    1.00000000E+00 
D    1    1.000000
   3.18000000E-01    1.00000000E+00 
F    1    1.000000
   7.61000000E-01    1.00000000E+00 
****
C    0
S    6    1.000000
   1.35753497E+04    2.22458144E-04 
   2.03523337E+03    1.72327383E-03 
   4.63225624E+02    8.92557153E-03 
   1.31200196E+02    3.57279845E-02 
   4.28530159E+01    1.10762599E-01 
   1.55841858E+01    2.42956276E-01 
S    2    1.000000
   6.20671385E+00    4.14402634E-01 
   2.57648965E+00    2.37449687E-01 
S    1    1.000000
   5.76963394E-01    1.00000000E+00 
S    1    1.000000
   2.29728314E-01    1.00000000E+00 
S    1    1.000000
   9.51644400E-02    1.00000000E+00 
S    1    1.000000
   4.84754014E-02    1.00000000E+00 
P    4    1.000000
   3.46972322E+01    5.33336578E-03 
   7.95826228E+00    3.58641091E-02 
   2.37808269E+00    1.42158733E-01 
   8.14332082E-01    3.42704718E-01 
P    1    1.000000
   2.88875473E-01    4.64458224E-01 
P    1    1.000000
   1.00568237E-01    2.49557899E-01 
D    1    1.000000
   1.09700000E+00    1.00000000E+00 
D    1    1.000000
   3.18000000E-01    1.00000000E+00 
F    1    1.000000
   7.61000000E-01    1.00000000E+00 
****
C    0
S    6    1.000000
   1.35753497E+04    2.22458144E-04 
   2.03523337E+03    1.72327383E-03 
   4.63225624E+02    8.92557153E-03 
   1.31200196E+02    3.57279845E-02 
   4.28530159E+01    1.10762599E-01 
   1.55841858E+01    2.42956276E-01 
S    2    1.000000
   6.20671385E+00    4.14402634E-01 
   2.57648965E+00    2.37449687E-01 
S    1    1.000000
   5.76963394E-01    1.00000000E+00 
S    1    1.000000
   2.29728314E-01    1.00000000E+00 
S    1    1.000000
   9.51644400E-02    1.00000000E+00 
S    1    1.000000
   4.84754014E-02    1.00000000E+00 
P    4    1.000000
   3.46972322E+01    5.33336578E-03 
   7.95826228E+00    3.58641091E-02 
   2.37808269E+00    1.42158733E-01 
   8.14332082E-01    3.42704718E-01 
P    1    1.000000
   2.88875473E-01    4.64458224E-01 
P    1    1.000000
   1.00568237E-01    2.49557899E-01 
D    1    1.000000
   1.09700000E+00    1.00000000E+00 
D    1    1.000000
   3.18000000E-01    1.00000000E+00 
F    1    1.000000
   7.61000000E-01    1.00000000E+00 
****
C    0
S    6    1.000000
   1.35753497E+04    2.22458144E-04 
   2.03523337E+03    1.72327383E-03 
   4.63225624E+02    8.92557153E-03 
   1.31200196E+02    3.57279845E-02 
   4.28530159E+01    1.10762599E-01 
   1.55841858E+01    2.42956276E-01 
S    2    1.000000
   6.20671385E+00    4.14402634E-01 
   2.57648965E+00    2.37449687E-01 
S    1    1.000000
   5.76963394E-01    1.00000000E+00 
S    1    1.000000
   2.29728314E-01    1.00000000E+00 
S    1    1.000000
   9.51644400E-02    1.00000000E+00 
S    1    1.000000
   4.84754014E-02    1.00000000E+00 
P    4    1.000000
   3.46972322E+01    5.33336578E-03 
   7.95826228E+00    3.58641091E-02 
   2.37808269E+00    1.42158733E-01 
   8.14332082E-01    3.42704718E-01 
P    1    1.000000
   2.88875473E-01    4.64458224E-01 
P    1    1.000000
   1.00568237E-01    2.49557899E-01 
D    1    1.000000
   1.09700000E+00    1.00000000E+00 
D    1    1.000000
   3.18000000E-01    1.00000000E+00 
F    1    1.000000
   7.61000000E-01    1.00000000E+00 
****
C    0
S    6    1.000000
   1.35753497E+04    2.22458144E-04 
   2.03523337E+03    1.72327383E-03 
   4.63225624E+02    8.92557153E-03 
   1.31200196E+02    3.57279845E-02 
   4.28530159E+01    1.10762599E-01 
   1.55841858E+01    2.42956276E-01 
S    2    1.000000
   6.20671385E+00    4.14402634E-01 
   2.57648965E+00    2.37449687E-01 
S    1    1.000000
   5.76963394E-01    1.00000000E+00 
S    1    1.000000
   2.29728314E-01    1.00000000E+00 
S    1    1.000000
   9.51644400E-02    1.00000000E+00 
S    1    1.000000
   4.84754014E-02    1.00000000E+00 
P    4    1.000000
   3.46972322E+01    5.33336578E-03 
   7.95826228E+00    3.58641091E-02 
   2.37808269E+00    1.42158733E-01 
   8.14332082E-01    3.42704718E-01 
P    1    1.000000
   2.88875473E-01    4.64458224E-01 
P    1    1.000000
   1.00568237E-01    2.49557899E-01 
D    1    1.000000
   1.09700000E+00    1.00000000E+00 
D    1    1.000000
   3.18000000E-01    1.00000000E+00 
F    1    1.000000
   7.61000000E-01    1.00000000E+00 
****
C    0
S    6    1.000000
   1.35753497E+04    2.22458144E-04 
   2.03523337E+03    1.72327383E-03 
   4.63225624E+02    8.92557153E-03 
   1.31200196E+02    3.57279845E-02 
   4.28530159E+01    1.10762599E-01 
   1.55841858E+01    2.42956276E-01 
S    2    1.000000
   6.20671385E+00    4.14402634E-01 
   2.57648965E+00    2.37449687E-01 
S    1    1.000000
   5.76963394E-01    1.00000000E+00 
S    1    1.000000
   2.29728314E-01    1.00000000E+00 
S    1    1.000000
   9.51644400E-02    1.00000000E+00 
S    1    1.000000
   4.84754014E-02    1.00000000E+00 
P    4    1.000000
   3.46972322E+01    5.33336578E-03 
   7.95826228E+00    3.58641091E-02 
   2.37808269E+00    1.42158733E-01 
   8.14332082E-01    3.42704718E-01 
P    1    1.000000
   2.88875473E-01    4.64458224E-01 
P    1    1.000000
   1.00568237E-01    2.49557899E-01 
D    1    1.000000
   1.09700000E+00    1.00000000E+00 
D    1    1.000000
   3.18000000E-01    1.00000000E+00 
F    1    1.000000
   7.61000000E-01    1.00000000E+00 
****
C    0
S    6    1.000000
   1.35753497E+04    2.22458144E-04 
   2.03523337E+03    1.72327383E-03 
   4.63225624E+02    8.92557153E-03 
   1.31200196E+02    3.57279845E-02 
   4.28530159E+01    1.10762599E-01 
   1.55841858E+01    2.42956276E-01 
S    2    1.000000
   6.20671385E+00    4.14402634E-01 
   2.57648965E+00    2.37449687E-01 
S    1    1.000000
   5.76963394E-01    1.00000000E+00 
S    1    1.000000
   2.29728314E-01    1.00000000E+00 
S    1    1.000000
   9.51644400E-02    1.00000000E+00 
S    1    1.000000
   4.84754014E-02    1.00000000E+00 
P    4    1.000000
   3.46972322E+01    5.33336578E-03 
   7.95826228E+00    3.58641091E-02 
   2.37808269E+00    1.42158733E-01 
   8.14332082E-01    3.42704718E-01 
P    1    1.000000
   2.88875473E-01    4.64458224E-01 
P    1    1.000000
   1.00568237E-01    2.49557899E-01 
D    1    1.000000
   1.09700000E+00    1.00000000E+00 
D    1    1.000000
   3.18000000E-01    1.00000000E+00 
F    1    1.000000
   7.61000000E-01    1.00000000E+00 
****
O    0
S    6    1.000000
   2.70323826E+04    2.17263025E-04 
   4.05238714E+03    1.68386622E-03 
   9.22327227E+02    8.73956163E-03 
   2.61240710E+02    3.52399688E-02 
   8.53546414E+01    1.11535191E-01 
   3.10350352E+01    2.55889540E-01 
S    2    1.000000
   1.22608607E+01    3.97687309E-01 
   4.99870760E+00    2.46278494E-01 
S    1    1.000000
   1.17031082E+00    1.00000000E+00 
S    1    1.000000
   4.64747410E-01    1.00000000E+00 
S    1    1.000000
   1.85045364E-01    1.00000000E+00 
S    1    1.000000
   7.02880263E-02    1.00000000E+00 
P    4    1.000000
   6.32749548E+01    6.06851034E-03 
   1.46270494E+01    4.19125758E-02 
   4.45012235E+00    1.61538411E-01 
   1.52757996E+00    3.57069513E-01 
P    1    1.000000
   5.29351179E-01    4.47942075E-01 
P    1    1.000000
   1.74784213E-01    2.44460697E-01 
P    1    1.000000
   5.11127457E-02    1.00000000E+00 
D    1    1.000000
   2.31400000E+00    1.00000000E+00 
D    1    1.000000
   6.45000000E-01    1.00000000E+00 
F    1    1.000000
   1.42800000E+00    1.00000000E+00 
****
C    0
S    6    1.000000
   1.35753497E+04    2.22458144E-04 
   2.03523337E+03    1.72327383E-03 
   4.63225624E+02    8.92557153E-03 
   1.31200196E+02    3.57279845E-02 
   4.28530159E+01    1.10762599E-01 
   1.55841858E+01    2.42956276E-01 
S    2    1.000000
   6.20671385E+00    4.14402634E-01 
   2.57648965E+00    2.37449687E-01 
S    1    1.000000
   5.76963394E-01    1.00000000E+00 
S    1    1.000000
   2.29728314E-01    1.00000000E+00 
S    1    1.000000
   9.51644400E-02    1.00000000E+00 
S    1    1.000000
   4.84754014E-02    1.00000000E+00 
P    4    1.000000
   3.46972322E+01    5.33336578E-03 
   7.95826228E+00    3.58641091E-02 
   2.37808269E+00    1.42158733E-01 
   8.14332082E-01    3.42704718E-01 
P    1    1.000000
   2.88875473E-01    4.64458224E-01 
P    1    1.000000
   1.00568237E-01    2.49557899E-01 
D    1    1.000000
   1.09700000E+00    1.00000000E+00 
D    1    1.000000
   3.18000000E-01    1.00000000E+00 
F    1    1.000000
   7.61000000E-01    1.00000000E+00 
****
C    0
S    6    1.000000
   1.35753497E+04    2.22458144E-04 
   2.03523337E+03    1.72327383E-03 
   4.63225624E+02    8.92557153E-03 
   1.31200196E+02    3.57279845E-02 
   4.28530159E+01    1.10762599E-01 
   1.55841858E+01    2.42956276E-01 
S    2    1.000000
   6.20671385E+00    4.14402634E-01 
   2.57648965E+00    2.37449687E-01 
S    1    1.000000
   5.76963394E-01    1.00000000E+00 
S    1    1.000000
   2.29728314E-01    1.00000000E+00 
S    1    1.000000
   9.51644400E-02    1.00000000E+00 
S    1    1.000000
   4.84754014E-02    1.00000000E+00 
P    4    1.000000
   3.46972322E+01    5.33336578E-03 
   7.95826228E+00    3.58641091E-02 
   2.37808269E+00    1.42158733E-01 
   8.14332082E-01    3.42704718E-01 
P    1    1.000000
   2.88875473E-01    4.64458224E-01 
P    1    1.000000
   1.00568237E-01    2.49557899E-01 
D    1    1.000000
   1.09700000E+00    1.00000000E+00 
D    1    1.000000
   3.18000000E-01    1.00000000E+00 
F    1    1.000000
   7.61000000E-01    1.00000000E+00 
****
C    0
S    6    1.000000
   1.35753497E+04    2.22458144E-04 
   2.03523337E+03    1.72327383E-03 
   4.63225624E+02    8.92557153E-03 
   1.31200196E+02    3.57279845E-02 
   4.28530159E+01    1.10762599E-01 
   1.55841858E+01    2.42956276E-01 
S    2    1.000000
   6.20671385E+00    4.14402634E-01 
   2.57648965E+00    2.37449687E-01 
S    1    1.000000
   5.76963394E-01    1.00000000E+00 
S    1    1.000000
   2.29728314E-01    1.00000000E+00 
S    1    1.000000
   9.51644400E-02    1.00000000E+00 
S    1    1.000000
   4.84754014E-02    1.00000000E+00 
P    4    1.000000
   3.46972322E+01    5.33336578E-03 
   7.95826228E+00    3.58641091E-02 
   2.37808269E+00    1.42158733E-01 
   8.14332082E-01    3.42704718E-01 
P    1    1.000000
   2.88875473E-01    4.64458224E-01 
P    1    1.000000
   1.00568237E-01    2.49557899E-01 
D    1    1.000000
   1.09700000E+00    1.00000000E+00 
D    1    1.000000
   3.18000000E-01    1.00000000E+00 
F    1    1.000000
   7.61000000E-01    1.00000000E+00 
****
C    0
S    6    1.000000
   1.35753497E+04    2.22458144E-04 
   2.03523337E+03    1.72327383E-03 
   4.63225624E+02    8.92557153E-03 
   1.31200196E+02    3.57279845E-02 
   4.28530159E+01    1.10762599E-01 
   1.55841858E+01    2.42956276E-01 
S    2    1.000000
   6.20671385E+00    4.14402634E-01 
   2.57648965E+00    2.37449687E-01 
S    1    1.000000
   5.76963394E-01    1.00000000E+00 
S    1    1.000000
   2.29728314E-01    1.00000000E+00 
S    1    1.000000
   9.51644400E-02    1.00000000E+00 
S    1    1.000000
   4.84754014E-02    1.00000000E+00 
P    4    1.000000
   3.46972322E+01    5.33336578E-03 
   7.95826228E+00    3.58641091E-02 
   2.37808269E+00    1.42158733E-01 
   8.14332082E-01    3.42704718E-01 
P    1    1.000000
   2.88875473E-01    4.64458224E-01 
P    1    1.000000
   1.00568237E-01    2.49557899E-01 
D    1    1.000000
   1.09700000E+00    1.00000000E+00 
D    1    1.000000
   3.18000000E-01    1.00000000E+00 
F    1    1.000000
   7.61000000E-01    1.00000000E+00 
****
C    0
S    6    1.000000
   1.35753497E+04    2.22458144E-04 
   2.03523337E+03    1.72327383E-03 
   4.63225624E+02    8.92557153E-03 
   1.31200196E+02    3.57279845E-02 
   4.28530159E+01    1.10762599E-01 
   1.55841858E+01    2.42956276E-01 
S    2    1.000000
   6.20671385E+00    4.14402634E-01 
   2.57648965E+00    2.37449687E-01 
S    1    1.000000
   5.76963394E-01    1.00000000E+00 
S    1    1.000000
   2.29728314E-01    1.00000000E+00 
S    1    1.000000
   9.51644400E-02    1.00000000E+00 
S    1    1.000000
   4.84754014E-02    1.00000000E+00 
P    4    1.000000
   3.46972322E+01    5.33336578E-03 
   7.95826228E+00    3.58641091E-02 
   2.37808269E+00    1.42158733E-01 
   8.14332082E-01    3.42704718E-01 
P    1    1.000000
   2.88875473E-01    4.64458224E-01 
P    1    1.000000
   1.00568237E-01    2.49557899E-01 
D    1    1.000000
   1.09700000E+00    1.00000000E+00 
D    1    1.000000
   3.18000000E-01    1.00000000E+00 
F    1    1.000000
   7.61000000E-01    1.00000000E+00 
****
C    0
S    6    1.000000
   1.35753497E+04    2.22458144E-04 
   2.03523337E+03    1.72327383E-03 
   4.63225624E+02    8.92557153E-03 
   1.31200196E+02    3.57279845E-02 
   4.28530159E+01    1.10762599E-01 
   1.55841858E+01    2.42956276E-01 
S    2    1.000000
   6.20671385E+00    4.14402634E-01 
   2.57648965E+00    2.37449687E-01 
S    1    1.000000
   5.76963394E-01    1.00000000E+00 
S    1    1.000000
   2.29728314E-01    1.00000000E+00 
S    1    1.000000
   9.51644400E-02    1.00000000E+00 
S    1    1.000000
   4.84754014E-02    1.00000000E+00 
P    4    1.000000
   3.46972322E+01    5.33336578E-03 
   7.95826228E+00    3.58641091E-02 
   2.37808269E+00    1.42158733E-01 
   8.14332082E-01    3.42704718E-01 
P    1    1.000000
   2.88875473E-01    4.64458224E-01 
P    1    1.000000
   1.00568237E-01    2.49557899E-01 
D    1    1.000000
   1.09700000E+00    1.00000000E+00 
D    1    1.000000
   3.18000000E-01    1.00000000E+00 
F    1    1.000000
   7.61000000E-01    1.00000000E+00 
****
O    0
S    6    1.000000
   2.70323826E+04    2.17263025E-04 
   4.05238714E+03    1.68386622E-03 
   9.22327227E+02    8.73956163E-03 
   2.61240710E+02    3.52399688E-02 
   8.53546414E+01    1.11535191E-01 
   3.10350352E+01    2.55889540E-01 
S    2    1.000000
   1.22608607E+01    3.97687309E-01 
   4.99870760E+00    2.46278494E-01 
S    1    1.000000
   1.17031082E+00    1.00000000E+00 
S    1    1.000000
   4.64747410E-01    1.00000000E+00 
S    1    1.000000
   1.85045364E-01    1.00000000E+00 
S    1    1.000000
   7.02880263E-02    1.00000000E+00 
P    4    1.000000
   6.32749548E+01    6.06851034E-03 
   1.46270494E+01    4.19125758E-02 
   4.45012235E+00    1.61538411E-01 
   1.52757996E+00    3.57069513E-01 
P    1    1.000000
   5.29351179E-01    4.47942075E-01 
P    1    1.000000
   1.74784213E-01    2.44460697E-01 
P    1    1.000000
   5.11127457E-02    1.00000000E+00 
D    1    1.000000
   2.31400000E+00    1.00000000E+00 
D    1    1.000000
   6.45000000E-01    1.00000000E+00 
F    1    1.000000
   1.42800000E+00    1.00000000E+00 
****
H    0
S    3    1.000000
   3.40613410E+01    6.02519780E-03 
   5.12357460E+00    4.50210940E-02 
   1.16466260E+00    2.01897260E-01 
S    1    1.000000
   3.27230410E-01    1.00000000E+00 
S    1    1.000000
   1.03072410E-01    1.00000000E+00 
P    1    1.000000
   8.00000000E-01    1.00000000E+00 
****
O    0
S    6    1.000000
   2.70323826E+04    2.17263025E-04 
   4.05238714E+03    1.68386622E-03 
   9.22327227E+02    8.73956163E-03 
   2.61240710E+02    3.52399688E-02 
   8.53546414E+01    1.11535191E-01 
   3.10350352E+01    2.55889540E-01 
S    2    1.000000
   1.22608607E+01    3.97687309E-01 
   4.99870760E+00    2.46278494E-01 
S    1    1.000000
   1.17031082E+00    1.00000000E+00 
S    1    1.000000
   4.64747410E-01    1.00000000E+00 
S    1    1.000000
   1.85045364E-01    1.00000000E+00 
S    1    1.000000
   7.02880263E-02    1.00000000E+00 
P    4    1.000000
   6.32749548E+01    6.06851034E-03 
   1.46270494E+01    4.19125758E-02 
   4.45012235E+00    1.61538411E-01 
   1.52757996E+00    3.57069513E-01 
P    1    1.000000
   5.29351179E-01    4.47942075E-01 
P    1    1.000000
   1.74784213E-01    2.44460697E-01 
P    1    1.000000
   5.11127457E-02    1.00000000E+00 
D    1    1.000000
   2.31400000E+00    1.00000000E+00 
D    1    1.000000
   6.45000000E-01    1.00000000E+00 
F    1    1.000000
   1.42800000E+00    1.00000000E+00 
****
H    0
S    3    1.000000
   3.40613410E+01    6.02519780E-03 
   5.12357460E+00    4.50210940E-02 
   1.16466260E+00    2.01897260E-01 
S    1    1.000000
   3.27230410E-01    1.00000000E+00 
S    1    1.000000
   1.03072410E-01    1.00000000E+00 
P    1    1.000000
   8.00000000E-01    1.00000000E+00 
****
H    0
S    3    1.000000
   3.40613410E+01    6.02519780E-03 
   5.12357460E+00    4.50210940E-02 
   1.16466260E+00    2.01897260E-01 
S    1    1.000000
   3.27230410E-01    1.00000000E+00 
S    1    1.000000
   1.03072410E-01    1.00000000E+00 
P    1    1.000000
   8.00000000E-01    1.00000000E+00 
****
O    0
S    6    1.000000
   2.70323826E+04    2.17263025E-04 
   4.05238714E+03    1.68386622E-03 
   9.22327227E+02    8.73956163E-03 
   2.61240710E+02    3.52399688E-02 
   8.53546414E+01    1.11535191E-01 
   3.10350352E+01    2.55889540E-01 
S    2    1.000000
   1.22608607E+01    3.97687309E-01 
   4.99870760E+00    2.46278494E-01 
S    1    1.000000
   1.17031082E+00    1.00000000E+00 
S    1    1.000000
   4.64747410E-01    1.00000000E+00 
S    1    1.000000
   1.85045364E-01    1.00000000E+00 
S    1    1.000000
   7.02880263E-02    1.00000000E+00 
P    4    1.000000
   6.32749548E+01    6.06851034E-03 
   1.46270494E+01    4.19125758E-02 
   4.45012235E+00    1.61538411E-01 
   1.52757996E+00    3.57069513E-01 
P    1    1.000000
   5.29351179E-01    4.47942075E-01 
P    1    1.000000
   1.74784213E-01    2.44460697E-01 
P    1    1.000000
   5.11127457E-02    1.00000000E+00 
D    1    1.000000
   2.31400000E+00    1.00000000E+00 
D    1    1.000000
   6.45000000E-01    1.00000000E+00 
F    1    1.000000
   1.42800000E+00    1.00000000E+00 
****
H    0
S    3    1.000000
   3.40613410E+01    6.02519780E-03 
   5.12357460E+00    4.50210940E-02 
   1.16466260E+00    2.01897260E-01 
S    1    1.000000
   3.27230410E-01    1.00000000E+00 
S    1    1.000000
   1.03072410E-01    1.00000000E+00 
P    1    1.000000
   8.00000000E-01    1.00000000E+00 
****
O    0
S    6    1.000000
   2.70323826E+04    2.17263025E-04 
   4.05238714E+03    1.68386622E-03 
   9.22327227E+02    8.73956163E-03 
   2.61240710E+02    3.52399688E-02 
   8.53546414E+01    1.11535191E-01 
   3.10350352E+01    2.55889540E-01 
S    2    1.000000
   1.22608607E+01    3.97687309E-01 
   4.99870760E+00    2.46278494E-01 
S    1    1.000000
   1.17031082E+00    1.00000000E+00 
S    1    1.000000
   4.64747410E-01    1.00000000E+00 
S    1    1.000000
   1.85045364E-01    1.00000000E+00 
S    1    1.000000
   7.02880263E-02    1.00000000E+00 
P    4    1.000000
   6.32749548E+01    6.06851034E-03 
   1.46270494E+01    4.19125758E-02 
   4.45012235E+00    1.61538411E-01 
   1.52757996E+00    3.57069513E-01 
P    1    1.000000
   5.29351179E-01    4.47942075E-01 
P    1    1.000000
   1.74784213E-01    2.44460697E-01 
P    1    1.000000
   5.11127457E-02    1.00000000E+00 
D    1    1.000000
   2.31400000E+00    1.00000000E+00 
D    1    1.000000
   6.45000000E-01    1.00000000E+00 
F    1    1.000000
   1.42800000E+00    1.00000000E+00 
****
O    0
S    6    1.000000
   2.70323826E+04    2.17263025E-04 
   4.05238714E+03    1.68386622E-03 
   9.22327227E+02    8.73956163E-03 
   2.61240710E+02    3.52399688E-02 
   8.53546414E+01    1.11535191E-01 
   3.10350352E+01    2.55889540E-01 
S    2    1.000000
   1.22608607E+01    3.97687309E-01 
   4.99870760E+00    2.46278494E-01 
S    1    1.000000
   1.17031082E+00    1.00000000E+00 
S    1    1.000000
   4.64747410E-01    1.00000000E+00 
S    1    1.000000
   1.85045364E-01    1.00000000E+00 
S    1    1.000000
   7.02880263E-02    1.00000000E+00 
P    4    1.000000
   6.32749548E+01    6.06851034E-03 
   1.46270494E+01    4.19125758E-02 
   4.45012235E+00    1.61538411E-01 
   1.52757996E+00    3.57069513E-01 
P    1    1.000000
   5.29351179E-01    4.47942075E-01 
P    1    1.000000
   1.74784213E-01    2.44460697E-01 
P    1    1.000000
   5.11127457E-02    1.00000000E+00 
D    1    1.000000
   2.31400000E+00    1.00000000E+00 
D    1    1.000000
   6.45000000E-01    1.00000000E+00 
F    1    1.000000
   1.42800000E+00    1.00000000E+00 
****
O    0
S    6    1.000000
   2.70323826E+04    2.17263025E-04 
   4.05238714E+03    1.68386622E-03 
   9.22327227E+02    8.73956163E-03 
   2.61240710E+02    3.52399688E-02 
   8.53546414E+01    1.11535191E-01 
   3.10350352E+01    2.55889540E-01 
S    2    1.000000
   1.22608607E+01    3.97687309E-01 
   4.99870760E+00    2.46278494E-01 
S    1    1.000000
   1.17031082E+00    1.00000000E+00 
S    1    1.000000
   4.64747410E-01    1.00000000E+00 
S    1    1.000000
   1.85045364E-01    1.00000000E+00 
S    1    1.000000
   7.02880263E-02    1.00000000E+00 
P    4    1.000000
   6.32749548E+01    6.06851034E-03 
   1.46270494E+01    4.19125758E-02 
   4.45012235E+00    1.61538411E-01 
   1.52757996E+00    3.57069513E-01 
P    1    1.000000
   5.29351179E-01    4.47942075E-01 
P    1    1.000000
   1.74784213E-01    2.44460697E-01 
P    1    1.000000
   5.11127457E-02    1.00000000E+00 
D    1    1.000000
   2.31400000E+00    1.00000000E+00 
D    1    1.000000
   6.45000000E-01    1.00000000E+00 
F    1    1.000000
   1.42800000E+00    1.00000000E+00 
****
H    0
S    3    1.000000
   3.40613410E+01    6.02519780E-03 
   5.12357460E+00    4.50210940E-02 
   1.16466260E+00    2.01897260E-01 
S    1    1.000000
   3.27230410E-01    1.00000000E+00 
S    1    1.000000
   1.03072410E-01    1.00000000E+00 
P    1    1.000000
   8.00000000E-01    1.00000000E+00 
****
H    0
S    3    1.000000
   3.40613410E+01    6.02519780E-03 
   5.12357460E+00    4.50210940E-02 
   1.16466260E+00    2.01897260E-01 
S    1    1.000000
   3.27230410E-01    1.00000000E+00 
S    1    1.000000
   1.03072410E-01    1.00000000E+00 
P    1    1.000000
   8.00000000E-01    1.00000000E+00 
****
H    0
S    3    1.000000
   3.40613410E+01    6.02519780E-03 
   5.12357460E+00    4.50210940E-02 
   1.16466260E+00    2.01897260E-01 
S    1    1.000000
   3.27230410E-01    1.00000000E+00 
S    1    1.000000
   1.03072410E-01    1.00000000E+00 
P    1    1.000000
   8.00000000E-01    1.00000000E+00 
****
H    0
S    3    1.000000
   3.40613410E+01    6.02519780E-03 
   5.12357460E+00    4.50210940E-02 
   1.16466260E+00    2.01897260E-01 
S    1    1.000000
   3.27230410E-01    1.00000000E+00 
S    1    1.000000
   1.03072410E-01    1.00000000E+00 
P    1    1.000000
   8.00000000E-01    1.00000000E+00 
****
H    0
S    3    1.000000
   3.40613410E+01    6.02519780E-03 
   5.12357460E+00    4.50210940E-02 
   1.16466260E+00    2.01897260E-01 
S    1    1.000000
   3.27230410E-01    1.00000000E+00 
S    1    1.000000
   1.03072410E-01    1.00000000E+00 
P    1    1.000000
   8.00000000E-01    1.00000000E+00 
****
H    0
S    3    1.000000
   3.40613410E+01    6.02519780E-03 
   5.12357460E+00    4.50210940E-02 
   1.16466260E+00    2.01897260E-01 
S    1    1.000000
   3.27230410E-01    1.00000000E+00 
S    1    1.000000
   1.03072410E-01    1.00000000E+00 
P    1    1.000000
   8.00000000E-01    1.00000000E+00 
****
$end
-----------------------------------------------------------------------
 There are 311 shells and 785 basis functions

 Total QAlloc Memory Limit  64000 MB
 Mega-Array Size      1956 MB
 MEM_STATIC part      2000 MB

 User-specified dielectric constants (eps_0 = 78.39, eps_inf = 1.78)
 Using C-PCM dielectric factor f(eps) = (eps-1)/eps = 0.987243
 Static dielectric constant eps = 78.39
 Discretize the solute cavity surface with Lebedev spheres
	Using 110 Lebedev grid points for each H atom
	Using 194 Lebedev grid points for other atoms
	Atomic van der Waals radii (Bondi set) will be scaled by 1.20
 Using smooth SwiG surface discretization
 Remove points where switching function is < 1.0e-08
 Keep 2199 surface tesserae and discard 3169 interior tesserae
 Molecular Surface Area = 306.618 Angst**2

 A cutoff of  1.0D-12 yielded  34198 shell pairs
 There are    205536 function pairs (    261229 Cartesian)
 Smallest overlap matrix eigenvalue = 3.92E-06

 Scale SEOQF with 1.000000e-02/1.000000e-02/1.000000e-01

 Standard Electronic Orientation quadrupole field applied
 Nucleus-field energy     =    -0.0000000092 hartrees
 Guess from superposition of atomic densities
 Warning:  Energy on first SCF cycle will be non-variational
 SAD guess density has 156.000000 electrons

 -----------------------------------------------------------------------
  General SCF calculation program by
  Eric Jon Sundstrom, Paul Horn, Yuezhi Mao, Dmitri Zuev, Alec White,
  David Stuck, Shaama M.S., Shane Yost, Joonho Lee, David Small,
  Daniel Levine, Susi Lehtola, Hugh Burton, Evgeny Epifanovsky,
  Bang C. Huynh
 -----------------------------------------------------------------------
 Exchange:     0.1900 Hartree-Fock + 0.3500 B88 + 0.4600 muB88 + LR-HF
 Correlation:  0.1900 VWN5 + 0.8100 LYP
 Using SG-1 standard quadrature grid
 using 16 threads for integral computing
 -------------------------------------------------------
 OpenMP Integral computing Module                
 Release: version 1.0, May 2013, Q-Chem Inc. Pittsburgh 
 -------------------------------------------------------
 C-PCM solvent model [f = (eps-1)/eps], solve by matrix inversion
 DFT Correlation          Energy =  -6.39282867632344
 DFT Exchange             Energy = -98.73703752289785
 HF Exchange              Energy = -40.22164126109874
 One-Electron             Energy = -4874.06590967035481
 SCRF wf-dependent energy Energy =   0.00000000000000
 Total Coulomb            Energy = 2207.75335380252409
 Nuclear repulsion Energy = 1700.97312296781570
 A restricted SCF calculation will be
 performed using DIIS
 SCF converges when DIIS error is below 1.0e-08
 DFT Correlation          Energy =  -6.39282867632344
 DFT Exchange             Energy = -98.73703752289785
 HF Exchange              Energy = -40.22164126109874
 One-Electron             Energy = -4874.06590967035481
 SCRF wf-dependent energy Energy =   0.00000000000000
 Total Coulomb            Energy = 2207.75335380252409
 ---------------------------------------
  Cycle       Energy         DIIS error
 ---------------------------------------
 DFT Correlation          Energy =  -6.47771349463929
 DFT Exchange             Energy = -100.82810982211406
 HF Exchange              Energy = -38.94334334988385
 One-Electron             Energy = -4897.60283123232239
 SCRF wf-dependent energy Energy =   0.54796815229201
 Total Coulomb            Energy = 2238.51902250666853
 Nuclear repulsion Energy = 1700.97312296781570
    1   -1110.6909403603      2.08e-02  
 DFT Correlation          Energy =  -6.41537457939003
 DFT Exchange             Energy = -98.94661821822633
 HF Exchange              Energy = -38.41271562027344
 One-Electron             Energy = -4882.18529261511321
 SCRF wf-dependent energy Energy =   1.32347810715260
 Total Coulomb            Energy = 2220.01096526023866
 Nuclear repulsion Energy = 1700.97312296781570
    2   -1103.8118842722      2.34e-03  
 DFT Correlation          Energy =  -6.44335116069434
 DFT Exchange             Energy = -99.85868029711010
 HF Exchange              Energy = -38.68957650950972
 One-Electron             Energy = -4886.73805339537103
 SCRF wf-dependent energy Energy =   0.16400633445596
 Total Coulomb            Energy = 2226.45873252690853
 Nuclear repulsion Energy = 1700.97312296781570
    3   -1103.6524346978      3.01e-03  
 DFT Correlation          Energy =  -6.44581989280365
 DFT Exchange             Energy = -99.90460475367823
 HF Exchange              Energy = -38.69974426971108
 One-Electron             Energy = -4888.74014958784755
 SCRF wf-dependent energy Energy =   0.55351825912840
 Total Coulomb            Energy = 2228.11646095590413
 Nuclear repulsion Energy = 1700.97312296781570
    4   -1104.1337995335      5.03e-04  
 DFT Correlation          Energy =  -6.44530940044215
 DFT Exchange             Energy = -99.88802647309534
 HF Exchange              Energy = -38.69610716059690
 One-Electron             Energy = -4888.56187011582097
 SCRF wf-dependent energy Energy =   0.52457805039762
 Total Coulomb            Energy = 2227.94488887134139
 Nuclear repulsion Energy = 1700.97312296781570
    5   -1104.1472163212      1.70e-04  
 DFT Correlation          Energy =  -6.44512810338605
 DFT Exchange             Energy = -99.88837678067628
 HF Exchange              Energy = -38.69676123091779
 One-Electron             Energy = -4888.38560810290710
 SCRF wf-dependent energy Energy =   0.49237358017899
 Total Coulomb            Energy = 2227.80145268428669
 Nuclear repulsion Energy = 1700.97312296781570
    6   -1104.1487232604      5.78e-05  
 DFT Correlation          Energy =  -6.44510400193057
 DFT Exchange             Energy = -99.88674518523854
 HF Exchange              Energy = -38.69645240932122
 One-Electron             Energy = -4888.38190365692208
 SCRF wf-dependent energy Energy =   0.49275562804587
 Total Coulomb            Energy = 2227.79538447494724
 Nuclear repulsion Energy = 1700.97312296781570
    7   -1104.1489249856      1.46e-05  
 DFT Correlation          Energy =  -6.44515358080379
 DFT Exchange             Energy = -99.88818816600494
 HF Exchange              Energy = -38.69687731508775
 One-Electron             Energy = -4888.40473149460922
 SCRF wf-dependent energy Energy =   0.49394654763728
 Total Coulomb            Energy = 2227.81893597395674
 Nuclear repulsion Energy = 1700.97312296781570
    8   -1104.1489421826      4.34e-06  
 DFT Correlation          Energy =  -6.44514390040490
 DFT Exchange             Energy = -99.88786723232084
 HF Exchange              Energy = -38.69681622484701
 One-Electron             Energy = -4888.39820146027978
 SCRF wf-dependent energy Energy =   0.49285657385167
 Total Coulomb            Energy = 2227.81310335592116
 Nuclear repulsion Energy = 1700.97312296781570
    9   -1104.1489450671      1.92e-06  
 DFT Correlation          Energy =  -6.44514298922141
 DFT Exchange             Energy = -99.88790015739538
 HF Exchange              Energy = -38.69683444203650
 One-Electron             Energy = -4888.39695279304760
 SCRF wf-dependent energy Energy =   0.49245675549628
 Total Coulomb            Energy = 2227.81230458276377
 Nuclear repulsion Energy = 1700.97312296781570
   10   -1104.1489459203      8.06e-07  
 DFT Correlation          Energy =  -6.44514416492100
 DFT Exchange             Energy = -99.88790617763121
 HF Exchange              Energy = -38.69683566514558
 One-Electron             Energy = -4888.39722882991555
 SCRF wf-dependent energy Energy =   0.49239178099469
 Total Coulomb            Energy = 2227.81265397742482
 Nuclear repulsion Energy = 1700.97312296781570
   11   -1104.1489460756      3.83e-07  
 DFT Correlation          Energy =  -6.44514430834944
 DFT Exchange             Energy = -99.88791568751051
 HF Exchange              Energy = -38.69683814914984
 One-Electron             Energy = -4888.39752582809524
 SCRF wf-dependent energy Energy =   0.49249673657437
 Total Coulomb            Energy = 2227.81285815253068
 Nuclear repulsion Energy = 1700.97312296781570
   12   -1104.1489461114      1.70e-07  
 DFT Correlation          Energy =  -6.44514422558485
 DFT Exchange             Energy = -99.88791392359330
 HF Exchange              Energy = -38.69683741529077
 One-Electron             Energy = -4888.39746519634355
 SCRF wf-dependent energy Energy =   0.49249719251975
 Total Coulomb            Energy = 2227.81279448274108
 Nuclear repulsion Energy = 1700.97312296781570
   13   -1104.1489461162      8.58e-08  
 DFT Correlation          Energy =  -6.44514421985285
 DFT Exchange             Energy = -99.88791397784031
 HF Exchange              Energy = -38.69683735650248
 One-Electron             Energy = -4888.39754871683726
 SCRF wf-dependent energy Energy =   0.49253315684518
 Total Coulomb            Energy = 2227.81284202864754
 Nuclear repulsion Energy = 1700.97312296781570
   14   -1104.1489461177      2.69e-08  
 DFT Correlation          Energy =  -6.44514423288568
 DFT Exchange             Energy = -99.88791415024275
 HF Exchange              Energy = -38.69683736175670
 One-Electron             Energy = -4888.39756574103012
 SCRF wf-dependent energy Energy =   0.49254006488218
 Total Coulomb            Energy = 2227.81285233563040
 Nuclear repulsion Energy = 1700.97312296781570
   15   -1104.1489461177      1.81e-08  
   16   -1104.1489461176      6.15e-09  Convergence criterion met
 ---------------------------------------
 DFT Correlation          Energy =  -6.44514423288568
 DFT Exchange             Energy = -99.88791415024275
 HF Exchange              Energy = -38.69683736175670
 One-Electron             Energy = -4888.39756574103012
 SCRF wf-dependent energy Energy =   0.49254006488218
 Total Coulomb            Energy = 2227.81285233563040
 Final Alpha MO Eigenvalues
            1           2           3           4           5           6
    1 -19.3052444 -19.2490786 -19.2485544 -19.2462295 -19.2423089 -19.2377112
            7           8           9          10          11          12
    1 -19.1361172 -10.3518444 -10.3459796 -10.3418128 -10.3395344 -10.3245623
           13          14          15          16          17          18
    1 -10.3222209 -10.3220940 -10.3160300 -10.2826284 -10.2785844 -10.2767603
           19          20          21          22          23          24
    1 -10.2620073 -10.2557382 -10.2551455 -10.2542901  -1.2305167  -1.1753016
           25          26          27          28          29          30
    1  -1.1637910  -1.1591979  -1.1506008  -1.1364694  -1.0646227  -0.9716823
           31          32          33          34          35          36
    1  -0.9521817  -0.9022360  -0.8868272  -0.8444649  -0.8352759  -0.8212557
           37          38          39          40          41          42
    1  -0.7698449  -0.7489773  -0.7253950  -0.7122389  -0.7101559  -0.6790876
           43          44          45          46          47          48
    1  -0.6576624  -0.6371992  -0.6299099  -0.6012270  -0.5934052  -0.5908932
           49          50          51          52          53          54
    1  -0.5855312  -0.5741832  -0.5550649  -0.5488574  -0.5331552  -0.5285891
           55          56          57          58          59          60
    1  -0.5145326  -0.5109162  -0.5019596  -0.5004462  -0.4909377  -0.4852178
           61          62          63          64          65          66
    1  -0.4836301  -0.4752852  -0.4613479  -0.4594096  -0.4540274  -0.4472387
           67          68          69          70          71          72
    1  -0.4457299  -0.4450962  -0.4352527  -0.4292791  -0.4196864  -0.3917777
           73          74          75          76          77          78
    1  -0.3372141  -0.3194931  -0.3060922  -0.2927176  -0.2920812  -0.2393785
           79          80          81          82          83          84
    1  -0.0719370   0.0174989   0.0217508   0.0306207   0.0332639   0.0398126
           85          86          87          88          89          90
    1   0.0414102   0.0440910   0.0475339   0.0613825   0.0638020   0.0654397
           91          92          93          94          95          96
    1   0.0765165   0.0771324   0.0837769   0.0870404   0.0899163   0.0954610
           97          98          99         100         101         102
    1   0.1024632   0.1098199   0.1108648   0.1136128   0.1138434   0.1213829
          103         104         105         106         107         108
    1   0.1283769   0.1337878   0.1357457   0.1461841   0.1464020   0.1505011
          109         110         111         112         113         114
    1   0.1525525   0.1562995   0.1632455   0.1668135   0.1700037   0.1781557
          115         116         117         118         119         120
    1   0.1838158   0.1922250   0.1968508   0.2088374   0.2113387   0.2164281
          121         122         123         124         125         126
    1   0.2170754   0.2237218   0.2273759   0.2339038   0.2366289   0.2427880
          127         128         129         130         131         132
    1   0.2439813   0.2448480   0.2535841   0.2576231   0.2582394   0.2689731
          133         134         135         136         137         138
    1   0.2712728   0.2797448   0.2830048   0.2860038   0.2887894   0.2907781
          139         140         141         142         143         144
    1   0.2977480   0.3050017   0.3063993   0.3103946   0.3165896   0.3198198
          145         146         147         148         149         150
    1   0.3216905   0.3265203   0.3288368   0.3312997   0.3367051   0.3414695
          151         152         153         154         155         156
    1   0.3439964   0.3522864   0.3541878   0.3565347   0.3630553   0.3674904
          157         158         159         160         161         162
    1   0.3709889   0.3797350   0.3859377   0.3879414   0.3899124   0.3926775
          163         164         165         166         167         168
    1   0.3949655   0.3991826   0.4132166   0.4154709   0.4192917   0.4270760
          169         170         171         172         173         174
    1   0.4320718   0.4338956   0.4404592   0.4419678   0.4427092   0.4498303
          175         176         177         178         179         180
    1   0.4525577   0.4570742   0.4606114   0.4627282   0.4783085   0.4818951
          181         182         183         184         185         186
    1   0.4858423   0.4921879   0.4940986   0.4990217   0.5033554   0.5070136
          187         188         189         190         191         192
    1   0.5094146   0.5214216   0.5239821   0.5359040   0.5418269   0.5545585
          193         194         195         196         197         198
    1   0.5571111   0.5609360   0.5722636   0.5733325   0.5780639   0.5830114
          199         200         201         202         203         204
    1   0.5865500   0.5907822   0.5928535   0.6014519   0.6050618   0.6134127
          205         206         207         208         209         210
    1   0.6145981   0.6218644   0.6271198   0.6340932   0.6381393   0.6401760
          211         212         213         214         215         216
    1   0.6413187   0.6460318   0.6479464   0.6576904   0.6588677   0.6645034
          217         218         219         220         221         222
    1   0.6685522   0.6698257   0.6803512   0.6826252   0.6898399   0.7026724
          223         224         225         226         227         228
    1   0.7043254   0.7088783   0.7128757   0.7165065   0.7194707   0.7375701
          229         230         231         232         233         234
    1   0.7388668   0.7456698   0.7532234   0.7550736   0.7606171   0.7657813
          235         236         237         238         239         240
    1   0.7666501   0.7786687   0.7864779   0.7882961   0.7966545   0.7985444
          241         242         243         244         245         246
    1   0.8014215   0.8071584   0.8151294   0.8194410   0.8271026   0.8294760
          247         248         249         250         251         252
    1   0.8396274   0.8409980   0.8466908   0.8497735   0.8594450   0.8657343
          253         254         255         256         257         258
    1   0.8774632   0.8849463   0.8878886   0.8960216   0.9004344   0.9074803
          259         260         261         262         263         264
    1   0.9103718   0.9146799   0.9253967   0.9336862   0.9389699   0.9478365
          265         266         267         268         269         270
    1   0.9667526   0.9692173   0.9828026   0.9881183   0.9959287   1.0119868
          271         272         273         274         275         276
    1   1.0175553   1.0348766   1.0413397   1.0439571   1.0641431   1.0719481
          277         278         279         280         281         282
    1   1.0751481   1.0860106   1.0989086   1.1054883   1.1176547   1.1217450
          283         284         285         286         287         288
    1   1.1262961   1.1290153   1.1391436   1.1539886   1.1610355   1.1698634
          289         290         291         292         293         294
    1   1.1748279   1.1812688   1.1882222   1.1939799   1.1970450   1.2006190
          295         296         297         298         299         300
    1   1.2071377   1.2091703   1.2353441   1.2432571   1.2447088   1.2626254
          301         302         303         304         305         306
    1   1.2944220   1.2965059   1.3044031   1.3136525   1.3246421   1.3411954
          307         308         309         310         311         312
    1   1.3496027   1.3528891   1.3640702   1.3791367   1.3823805   1.3910497
          313         314         315         316         317         318
    1   1.3980364   1.4043007   1.4076717   1.4367679   1.4399316   1.4454758
          319         320         321         322         323         324
    1   1.4563644   1.4591379   1.4666236   1.4767876   1.4870633   1.4965620
          325         326         327         328         329         330
    1   1.5020349   1.5088444   1.5122239   1.5338679   1.5404669   1.5467785
          331         332         333         334         335         336
    1   1.5611381   1.5709356   1.5733642   1.5889015   1.5918992   1.6016125
          337         338         339         340         341         342
    1   1.6071981   1.6199691   1.6280780   1.6315406   1.6527364   1.6620160
          343         344         345         346         347         348
    1   1.6826451   1.6869293   1.6909406   1.7057909   1.7121567   1.7184589
          349         350         351         352         353         354
    1   1.7244579   1.7273552   1.7349130   1.7390369   1.7522327   1.7612220
          355         356         357         358         359         360
    1   1.7614958   1.7640849   1.7770506   1.7809447   1.7937542   1.7994980
          361         362         363         364         365         366
    1   1.8238643   1.8344112   1.8438144   1.8510431   1.8714639   1.8740468
          367         368         369         370         371         372
    1   1.8844094   1.8892617   1.9035054   1.9167115   1.9199708   1.9331727
          373         374         375         376         377         378
    1   1.9393420   1.9492044   1.9574533   1.9644150   1.9713813   1.9753307
          379         380         381         382         383         384
    1   1.9899381   2.0010752   2.0102051   2.0175486   2.0328203   2.0392085
          385         386         387         388         389         390
    1   2.0412264   2.0504633   2.0680396   2.0784546   2.0850619   2.0882044
          391         392         393         394         395         396
    1   2.1026345   2.1204213   2.1252917   2.1262654   2.1430653   2.1506909
          397         398         399         400         401         402
    1   2.1551949   2.1626022   2.1740880   2.1786996   2.1916533   2.2031001
          403         404         405         406         407         408
    1   2.2061279   2.2093644   2.2156951   2.2201604   2.2317649   2.2353554
          409         410         411         412         413         414
    1   2.2418025   2.2553895   2.2703438   2.2805064   2.2884333   2.2984312
          415         416         417         418         419         420
    1   2.3019073   2.3081610   2.3176638   2.3370891   2.3394014   2.3541696
          421         422         423         424         425         426
    1   2.3604691   2.3704255   2.3788905   2.3886917   2.3939203   2.4164450
          427         428         429         430         431         432
    1   2.4238764   2.4367853   2.4568325   2.4608294   2.4635574   2.4865640
          433         434         435         436         437         438
    1   2.5080490   2.5211606   2.5417594   2.5424641   2.5525745   2.5593259
          439         440         441         442         443         444
    1   2.5748298   2.5835232   2.5849233   2.6011377   2.6133594   2.6243453
          445         446         447         448         449         450
    1   2.6367987   2.6588871   2.6670500   2.6738799   2.6829255   2.6941311
          451         452         453         454         455         456
    1   2.6974585   2.7048696   2.7088159   2.7179185   2.7237513   2.7347432
          457         458         459         460         461         462
    1   2.7425540   2.7591108   2.7668495   2.7711037   2.7771950   2.7883638
          463         464         465         466         467         468
    1   2.7916153   2.7955885   2.8114900   2.8163517   2.8247022   2.8367052
          469         470         471         472         473         474
    1   2.8441118   2.8676377   2.8769296   2.8835831   2.8875283   2.8914357
          475         476         477         478         479         480
    1   2.8931891   2.9010494   2.9056860   2.9144479   2.9266809   2.9345912
          481         482         483         484         485         486
    1   2.9473346   2.9510660   2.9578484   2.9647399   2.9688948   2.9756185
          487         488         489         490         491         492
    1   2.9787012   2.9900704   2.9977666   3.0088314   3.0150819   3.0176420
          493         494         495         496         497         498
    1   3.0278813   3.0385532   3.0442459   3.0491589   3.0546518   3.0625197
          499         500         501         502         503         504
    1   3.0806532   3.0865223   3.0931221   3.1065264   3.1080436   3.1139365
          505         506         507         508         509         510
    1   3.1230834   3.1343921   3.1497117   3.1580136   3.1614869   3.1713123
          511         512         513         514         515         516
    1   3.1746364   3.1822205   3.1861446   3.1961184   3.2126761   3.2174301
          517         518         519         520         521         522
    1   3.2186212   3.2254790   3.2366381   3.2425169   3.2520613   3.2558239
          523         524         525         526         527         528
    1   3.2601042   3.2690743   3.2786636   3.2838685   3.2931232   3.2999895
          529         530         531         532         533         534
    1   3.3097165   3.3161159   3.3259024   3.3302651   3.3305344   3.3364569
          535         536         537         538         539         540
    1   3.3446733   3.3483441   3.3584883   3.3665755   3.3710661   3.3727458
          541         542         543         544         545         546
    1   3.3967064   3.4033490   3.4055684   3.4086985   3.4320114   3.4375714
          547         548         549         550         551         552
    1   3.4434705   3.4519024   3.4576975   3.4641099   3.4696094   3.4752137
          553         554         555         556         557         558
    1   3.4842963   3.4897590   3.4942138   3.5021623   3.5107743   3.5194367
          559         560         561         562         563         564
    1   3.5319677   3.5342951   3.5398654   3.5442286   3.5526449   3.5683119
          565         566         567         568         569         570
    1   3.5728970   3.5842034   3.5875446   3.5902510   3.5942559   3.6233325
          571         572         573         574         575         576
    1   3.6265372   3.6389436   3.6544060   3.6582633   3.6666038   3.6775048
          577         578         579         580         581         582
    1   3.6825498   3.6848026   3.7144322   3.7306576   3.7466660   3.7535533
          583         584         585         586         587         588
    1   3.7549569   3.7663201   3.7850576   3.8212355   3.8459023   3.8499971
          589         590         591         592         593         594
    1   3.8565001   3.8770882   3.8832186   3.8920411   3.9087805   3.9370010
          595         596         597         598         599         600
    1   3.9461522   3.9630890   3.9708374   3.9895726   4.0056597   4.0312312
          601         602         603         604         605         606
    1   4.0336318   4.0463257   4.0603013   4.0654372   4.0770109   4.0813252
          607         608         609         610         611         612
    1   4.1078670   4.1291412   4.1374415   4.1520722   4.1765061   4.1994413
          613         614         615         616         617         618
    1   4.2098555   4.2193312   4.2264835   4.2308022   4.2443195   4.2569090
          619         620         621         622         623         624
    1   4.2730426   4.2782826   4.2815826   4.2974353   4.2996735   4.3158435
          625         626         627         628         629         630
    1   4.3236152   4.3284121   4.3641852   4.3718170   4.3999563   4.4146628
          631         632         633         634         635         636
    1   4.4186593   4.4429491   4.4722385   4.4860390   4.5069615   4.5096697
          637         638         639         640         641         642
    1   4.5217861   4.5638620   4.5894890   4.5918158   4.6202453   4.6293433
          643         644         645         646         647         648
    1   4.6520371   4.6557688   4.6732190   4.6831884   4.6904326   4.7079225
          649         650         651         652         653         654
    1   4.7555173   4.8007247   4.8192924   4.8298485   4.8598071   4.8829590
          655         656         657         658         659         660
    1   4.9163655   4.9390593   4.9547268   4.9563209   4.9906462   5.0124081
          661         662         663         664         665         666
    1   5.0226853   5.0459512   5.1018368   5.1132625   5.1313011   5.1512101
          667         668         669         670         671         672
    1   5.1794757   5.1989912   5.2362253   5.2687671   5.2785148   5.3031796
          673         674         675         676         677         678
    1   5.3070750   5.3116574   5.3138440   5.3180127   5.3413319   5.3472999
          679         680         681         682         683         684
    1   5.3689049   5.3797060   5.4055935   5.4394301   5.4576012   5.4972542
          685         686         687         688         689         690
    1   5.5049030   5.5212566   5.5266140   5.5267277   5.5305828   5.5429977
          691         692         693         694         695         696
    1   5.5592232   5.5849561   5.6012423   5.6061271   5.6146235   5.6713044
          697         698         699         700         701         702
    1   5.7019354   5.7108797   5.7125993   5.7942565   5.8053276   5.8120781
          703         704         705         706         707         708
    1   5.8471131   5.8492970   5.9036043   5.9071136   6.0026359   6.0054315
          709         710         711         712         713         714
    1   6.0256707   6.0319099   6.1118688   6.1129132   6.1445998   6.2185626
          715         716         717         718         719         720
    1   6.2621541   6.2851575   6.3129981   6.4044354   6.4104687   6.4437030
          721         722         723         724         725         726
    1   6.4517431   6.4606258   6.4645187   6.4722527   6.4744440   6.4773985
          727         728         729         730         731         732
    1   6.4937291   6.5027801   6.5133296   6.5229053   6.5750875   6.6579348
          733         734         735         736         737         738
    1   6.6842251   6.7120416   6.7414529   6.7733453   6.7778384   6.7854257
          739         740         741         742         743         744
    1   6.7889458   6.8554921   6.8865005   6.8894392   6.9199378   6.9253218
          745         746         747         748         749         750
    1   6.9267338   6.9456295   6.9612310   7.0278239   7.0440201   7.0469786
          751         752         753         754         755         756
    1   7.1024471   7.1039637   7.1303024   7.2113870   7.2337436   7.2750342
          757         758         759         760         761         762
    1   7.3083202   7.3714529   7.4073249   7.4174808   7.5093714   7.5335533
          763         764         765         766         767         768
    1   7.5686247  22.4675042  22.5892853  22.8161573  22.8617090  22.8959155
          769         770         771         772         773         774
    1  22.9136886  22.9790416  23.0297819  23.0776023  23.0830037  23.1279440
          775         776         777         778         779         780
    1  23.2200678  23.3752929  23.6073507  23.6936020  43.9951742  44.1074091
          781         782         783         784         785
    1  44.1454734  44.1699638  44.2078117  44.2973481  44.7141763
 SCF time:   CPU 9346.29s  wall 695.00s 
 DFT Correlation          Energy =  -6.44514423288568
 DFT Exchange             Energy = -99.88791415024275
 HF Exchange              Energy = -38.69683736175670
 One-Electron             Energy = -4888.39756574103012
 SCRF wf-dependent energy Energy =   0.49254006488218
 Total Coulomb            Energy = 2227.81285233563040
 Nuclear repulsion Energy = 1700.97312296781570

************** Final PCM Free Energy Summary **************
 G_electrostatic  =      -0.05227295 hartree =     -32.80177083 kcal/mol
 G_cavitation     =       0.00000000 hartree =       0.00000000 kcal/mol
 G_dispersion     =       0.00000000 hartree =       0.00000000 kcal/mol
 G_repulsion      =       0.00000000 hartree =       0.00000000 kcal/mol
 --------------------------------------------------
 Non-electrostatic Free Energy =       0.00000000 hartree =       0.00000000 kcal/mol
 Total                         =      -0.05227295 hartree =     -32.80177083 kcal/mol
 --------------------------------------------------
 SCF Energy (H0 + V/2)                       =   -1104.14894612 
 Solute Internal Energy (H0)                 =   -1104.09667317 
 Total Free Energy (H0 + V/2 + non-elec)     =   -1104.14894612 hartree
                                             = -692863.92446552 kcal/mol
***********************************************************

 SCF   energy = -1104.14894612
 Total energy = -1104.14894612
 MAX_CIS_SUBSPACE fits in available memory
 Direct TDDFT/TDA calculation will be performed
 Exchange:     0.1900 Hartree-Fock + 0.3500 B88 + 0.4600 muB88 + LR-HF
 Correlation:  0.1900 VWN5 + 0.8100 LYP
 Using SG-1 standard quadrature grid
 Triplet excitation energies requested
 Singlet excitation energies requested
 Adding PCM contribution to the XC response (LR-PCM)
 Optical dielectric constant (eps_inf) =  1.78
 CIS energy converged when residual is below 10e- 6
 ---------------------------------------------------
 Iter    Rts Conv    Rts Left    Ttl Dev     Max Dev
 ---------------------------------------------------
   1         0           7      0.000905    0.000148
   2         0           7      0.000306    0.000059
   3         0           7      0.000121    0.000033
   4         0           7      0.000294    0.000237
   5         2           5      0.000118    0.000087
   6         3           4      0.000045    0.000034
   7         5           2      0.000016    0.000012
   8         6           1      0.000007    0.000005
   9         6           1      0.000003    0.000001
  10         7           0      0.000002    0.000000    Roots Converged
 ---------------------------------------------------
 Triplets done: starting singlet calculation
 ---------------------------------------------------
 Iter    Rts Conv    Rts Left    Ttl Dev     Max Dev
 ---------------------------------------------------
  11         0           7      0.002148    0.000487
  12         0           7      0.000544    0.000141
  13         0           7      0.000343    0.000120
  14         0           7      0.000219    0.000074
  15         0           7      0.000116    0.000048
  16         2           5      0.000059    0.000028
  17         4           3      0.000024    0.000009
  18         4           3      0.000012    0.000005
  19         5           2      0.000006    0.000002
  20         7           0      0.000004    0.000001    Roots Converged
 ---------------------------------------------------
 
 ---------------------------------------------------
         TDDFT/TDA Excitation Energies              
 ---------------------------------------------------

 Excited state   1: excitation energy (eV) =       1.0897
 Total energy for state   1:                 -1104.10889931 au
    Multiplicity: Triplet
    Trans. Mom.:  0.0000 X   0.0000 Y   0.0000 Z
    Strength   :     0.0000000000
    D(   73) --> V(    1) amplitude = -0.0791
    D(   74) --> V(    1) amplitude = -0.1180
    D(   77) --> V(    1) amplitude =  0.0820
    D(   78) --> V(    1) amplitude =  0.9641
    D(   78) --> V(   10) amplitude =  0.0767

 Excited state   2: excitation energy (eV) =       2.5609
 Total energy for state   2:                 -1104.05483509 au
    Multiplicity: Singlet
    Trans. Mom.: -2.5964 X  -2.4134 Y   0.0683 Z
    Strength   :     0.7886967110
    D(   78) --> V(    1) amplitude =  0.9769

 Excited state   3: excitation energy (eV) =       2.9025
 Total energy for state   3:                 -1104.04228298 au
    Multiplicity: Triplet
    Trans. Mom.:  0.0000 X   0.0000 Y   0.0000 Z
    Strength   :     0.0000000000
    D(   72) --> V(    1) amplitude = -0.1244
    D(   74) --> V(    5) amplitude = -0.1363
    D(   76) --> V(    1) amplitude =  0.5670
    D(   76) --> V(   10) amplitude = -0.0804
    D(   77) --> V(    1) amplitude =  0.6769
    D(   77) --> V(   10) amplitude = -0.0790
    D(   78) --> V(    1) amplitude = -0.0980
    D(   78) --> V(    2) amplitude =  0.2673
    D(   78) --> V(    5) amplitude = -0.1753
    D(   78) --> V(   10) amplitude =  0.0973

 Excited state   4: excitation energy (eV) =       3.0929
 Total energy for state   4:                 -1104.03528559 au
    Multiplicity: Triplet
    Trans. Mom.:  0.0000 X   0.0000 Y   0.0000 Z
    Strength   :     0.0000000000
    D(   75) --> V(    1) amplitude =  0.8438
    D(   75) --> V(   10) amplitude =  0.1119
    D(   76) --> V(    1) amplitude = -0.3804
    D(   77) --> V(    1) amplitude =  0.3061

 Excited state   5: excitation energy (eV) =       3.1507
 Total energy for state   5:                 -1104.03316135 au
    Multiplicity: Triplet
    Trans. Mom.:  0.0000 X   0.0000 Y   0.0000 Z
    Strength   :     0.0000000000
    D(   75) --> V(    1) amplitude =  0.5015
    D(   76) --> V(    1) amplitude =  0.6084
    D(   76) --> V(    2) amplitude = -0.1097
    D(   76) --> V(    5) amplitude =  0.1121
    D(   76) --> V(   10) amplitude = -0.1089
    D(   77) --> V(    1) amplitude = -0.5313
    D(   77) --> V(    2) amplitude =  0.1046
    D(   77) --> V(    5) amplitude = -0.1153
    D(   77) --> V(   10) amplitude =  0.0929

 Excited state   6: excitation energy (eV) =       3.2518
 Total energy for state   6:                 -1104.02944501 au
    Multiplicity: Singlet
    Trans. Mom.: -0.0126 X  -0.0267 Y  -0.0259 Z
    Strength   :     0.0001229364
    D(   75) --> V(    1) amplitude =  0.9788
    D(   75) --> V(   10) amplitude =  0.1097
    D(   76) --> V(    1) amplitude = -0.0808
    D(   77) --> V(    1) amplitude =  0.1003

 Excited state   7: excitation energy (eV) =       3.4760
 Total energy for state   7:                 -1104.02120630 au
    Multiplicity: Triplet
    Trans. Mom.:  0.0000 X   0.0000 Y   0.0000 Z
    Strength   :     0.0000000000
    D(   73) --> V(    1) amplitude =  0.2376
    D(   74) --> V(    1) amplitude =  0.8142
    D(   74) --> V(    5) amplitude = -0.1309
    D(   76) --> V(    2) amplitude =  0.0813
    D(   76) --> V(    5) amplitude = -0.2150
    D(   77) --> V(    2) amplitude =  0.0739
    D(   77) --> V(    5) amplitude = -0.1834
    D(   77) --> V(    7) amplitude =  0.1049
    D(   78) --> V(    1) amplitude =  0.1218
    D(   78) --> V(    2) amplitude = -0.0732
    D(   78) --> V(    5) amplitude = -0.1630
    D(   78) --> V(   10) amplitude = -0.2243
    D(   78) --> V(   13) amplitude =  0.0836

 Excited state   8: excitation energy (eV) =       3.5649
 Total energy for state   8:                 -1104.01793857 au
    Multiplicity: Triplet
    Trans. Mom.:  0.0000 X   0.0000 Y   0.0000 Z
    Strength   :     0.0000000000
    D(   73) --> V(    1) amplitude =  0.2120
    D(   73) --> V(   32) amplitude =  0.0760
    D(   74) --> V(    2) amplitude = -0.1164
    D(   76) --> V(    1) amplitude = -0.1745
    D(   76) --> V(    2) amplitude =  0.1012
    D(   77) --> V(    1) amplitude = -0.1816
    D(   77) --> V(    2) amplitude =  0.1073
    D(   78) --> V(    2) amplitude =  0.8900
    D(   78) --> V(   32) amplitude = -0.1102

 Excited state   9: excitation energy (eV) =       3.7434
 Total energy for state   9:                 -1104.01137987 au
    Multiplicity: Singlet
    Trans. Mom.:  0.2052 X   0.4692 Y   0.2074 Z
    Strength   :     0.0279990611
    D(   74) --> V(    1) amplitude =  0.2287
    D(   75) --> V(    1) amplitude =  0.0837
    D(   76) --> V(    1) amplitude =  0.9349
    D(   77) --> V(    5) amplitude = -0.0754
    D(   78) --> V(    2) amplitude =  0.1169
    D(   78) --> V(    5) amplitude =  0.0898
    D(   78) --> V(    7) amplitude =  0.0799

 Excited state  10: excitation energy (eV) =       3.7790
 Total energy for state  10:                 -1104.01006908 au
    Multiplicity: Singlet
    Trans. Mom.:  1.1501 X   0.7330 Y  -0.2769 Z
    Strength   :     0.1793091703
    D(   74) --> V(    1) amplitude =  0.2569
    D(   75) --> V(    1) amplitude = -0.0944
    D(   76) --> V(    7) amplitude =  0.0893
    D(   77) --> V(    1) amplitude =  0.9161
    D(   78) --> V(    2) amplitude =  0.1393
    D(   78) --> V(    7) amplitude = -0.1392

 Excited state  11: excitation energy (eV) =       3.8469
 Total energy for state  11:                 -1104.00757366 au
    Multiplicity: Triplet
    Trans. Mom.:  0.0000 X   0.0000 Y   0.0000 Z
    Strength   :     0.0000000000
    D(   71) --> V(    1) amplitude = -0.1983
    D(   72) --> V(    1) amplitude = -0.1255
    D(   73) --> V(    1) amplitude = -0.8132
    D(   73) --> V(    2) amplitude = -0.0929
    D(   73) --> V(    5) amplitude =  0.1350
    D(   74) --> V(    1) amplitude =  0.3033
    D(   77) --> V(    2) amplitude =  0.0843
    D(   77) --> V(   10) amplitude =  0.0756
    D(   78) --> V(    2) amplitude =  0.1589
    D(   78) --> V(    5) amplitude =  0.2135
    D(   78) --> V(   10) amplitude =  0.0838
    D(   78) --> V(   32) amplitude = -0.1089

 Excited state  12: excitation energy (eV) =       4.3477
 Total energy for state  12:                 -1103.98917254 au
    Multiplicity: Singlet
    Trans. Mom.: -0.8863 X  -0.7021 Y   0.0912 Z
    Strength   :     0.1370513844
    D(   72) --> V(    1) amplitude =  0.1044
    D(   73) --> V(    1) amplitude =  0.3068
    D(   74) --> V(    1) amplitude =  0.8185
    D(   76) --> V(    1) amplitude = -0.2428
    D(   76) --> V(    2) amplitude =  0.0718
    D(   77) --> V(    1) amplitude = -0.2501
    D(   77) --> V(    2) amplitude =  0.0848
    D(   78) --> V(    2) amplitude =  0.2181

 Excited state  13: excitation energy (eV) =       4.5752
 Total energy for state  13:                 -1103.98081168 au
    Multiplicity: Singlet
    Trans. Mom.: -0.4444 X   0.2091 Y   0.4018 Z
    Strength   :     0.0451366422
    D(   72) --> V(    1) amplitude = -0.0721
    D(   73) --> V(    1) amplitude = -0.6176
    D(   74) --> V(   10) amplitude = -0.0818
    D(   76) --> V(    1) amplitude = -0.0959
    D(   76) --> V(    2) amplitude =  0.1070
    D(   77) --> V(    1) amplitude = -0.1313
    D(   77) --> V(    2) amplitude =  0.1370
    D(   78) --> V(    2) amplitude =  0.6830
    D(   78) --> V(    5) amplitude =  0.1816

 Excited state  14: excitation energy (eV) =       4.9651
 Total energy for state  14:                 -1103.96648070 au
    Multiplicity: Singlet
    Trans. Mom.: -0.0101 X  -0.0018 Y   0.0349 Z
    Strength   :     0.0001606808
    D(   76) --> V(    4) amplitude = -0.0793
    D(   77) --> V(    3) amplitude = -0.0734
    D(   77) --> V(    4) amplitude = -0.0953
    D(   78) --> V(    3) amplitude =  0.6472
    D(   78) --> V(    4) amplitude = -0.5415
    D(   78) --> V(    6) amplitude = -0.2275
    D(   78) --> V(    9) amplitude = -0.3499
    D(   78) --> V(   12) amplitude =  0.1919
    D(   78) --> V(   14) amplitude = -0.0771
 
 ---------------------------------------------------

 Direct TDDFT calculation will be performed
 Exchange:     0.1900 Hartree-Fock + 0.3500 B88 + 0.4600 muB88 + LR-HF
 Correlation:  0.1900 VWN5 + 0.8100 LYP
 Using SG-1 standard quadrature grid
 ---------------------------------------------------
 Iter    Rts Conv    Rts Left    Ttl Dev     Max Dev
 ---------------------------------------------------
   1         0           7      0.001008    0.000233
   2         0           7      0.000335    0.000088
   3         0           7      0.000186    0.000046
   4         0           7      0.000082    0.000022
   5         0           7      0.000041    0.000010
   6         2           5      0.000020    0.000006
   7         3           4      0.000011    0.000003
   8         6           1      0.000005    0.000001
[...]
      XZZZ     708.0743   YZZZ    -608.4311   ZZZZ   -1320.1926
    5th-Order Moments (Debye-Ang^4)
       500   15281.8056    410  -11264.9323    320   -1805.9815
       230   -9017.4129    140   -6923.7135    050  -60469.2844
       401   -3042.8501    311    1183.5366    221   -2161.2269
       131    1169.7193    041   -4464.3356    302    3338.5865
       212   -2237.1122    122   -1315.8744    032   -8308.5681
       203   -3376.6760    113     854.3188    023   -3102.3614
       104    2683.0564    014   -3254.7300    005   -3020.2991
 -----------------------------------------------------------------
 -----------------------------------------------------------------
                 RPA Excited-State Multipoles, State    4   
                  LMN = < X^L Y^M Z^N >
 -----------------------------------------------------------------
    Charge (ESU x 10^10)
                 0.0000
    Dipole Moment (Debye)
         X       0.1563      Y       2.8921      Z       1.4808
       Tot       3.2529
    Quadrupole Moments (Debye-Ang)
        XX     -71.0370     XY      41.5251     YY     -90.8767
        XZ     -11.8598     YZ      -5.1140     ZZ    -127.7534
    Octopole Moments (Debye-Ang^2)
       XXX     102.2746    XXY    -325.7808    XYY     205.2943
       YYY    -712.2705    XXZ     -25.0926    XYZ       6.6360
       YYZ     -47.4848    XZZ     116.9976    YZZ    -290.5365
       ZZZ    -172.0071
    Hexadecapole Moments (Debye-Ang^3)
      XXXX   -4164.6443   XXXY    -227.3040   XXYY   -1993.1393
      XYYY    -374.6335   YYYY   -7091.7755   XXXZ     190.6085
      XXYZ    -387.9019   XYYZ     272.0031   YYYZ    -358.3609
      XXZZ   -1127.4785   XYZZ    -248.0759   YYZZ   -1532.6231
      XZZZ     721.5299   YZZZ    -591.7755   ZZZZ   -1309.4412
    5th-Order Moments (Debye-Ang^4)
       500   16403.4436    410  -11478.3247    320   -2032.8157
       230   -9805.4964    140   -8188.7852    050  -59999.8015
       401   -3355.7662    311    1138.3332    221   -2314.8665
       131    1133.4415    041   -3505.8690    302    3455.7577
       212   -2243.3001    122   -1221.3931    032   -7856.9192
       203   -3433.8871    113     881.9581    023   -2972.2255
       104    2737.4155    014   -3190.5732    005   -3033.5524
 -----------------------------------------------------------------
 -----------------------------------------------------------------
                 RPA Excited-State Multipoles, State    5   
                  LMN = < X^L Y^M Z^N >
 -----------------------------------------------------------------
    Charge (ESU x 10^10)
                 0.0000
    Dipole Moment (Debye)
         X      -0.3980      Y      -1.4636      Z      -0.9789
       Tot       1.8052
    Quadrupole Moments (Debye-Ang)
        XX     -75.0948     XY      35.6096     YY    -114.5429
        XZ     -12.7166     YZ      -9.5601     ZZ    -127.1334
    Octopole Moments (Debye-Ang^2)
       XXX      96.6735    XXY    -339.6863    XYY     179.0925
       YYY    -831.5827    XXZ     -24.3698    XYZ       6.2688
       YYZ     -68.3329    XZZ     116.8452    YZZ    -300.0849
       ZZZ    -179.9997
    Hexadecapole Moments (Debye-Ang^3)
      XXXX   -4214.4769   XXXY    -263.2910   XXYY   -2047.1155
      XYYY    -490.2406   YYYY   -7706.9779   XXXZ     203.5168
      XXYZ    -379.0877   XYYZ     268.6981   YYYZ    -478.6299
      XXZZ   -1134.0083   XYZZ    -260.4256   YYZZ   -1591.2926
      XZZZ     716.9800   YZZZ    -611.1051   ZZZZ   -1310.2412
    5th-Order Moments (Debye-Ang^4)
       500   16368.0625    410  -11613.7455    320   -2170.0837
       230  -10007.6580    140   -8703.2809    050  -63288.2708
       401   -3339.1325    311    1185.3404    221   -2274.6489
       131    1095.9344    041   -4242.3983    302    3453.1294
       212   -2270.1402    122   -1291.7803    032   -8193.3441
       203   -3438.5525    113     869.1176    023   -3072.4248
       104    2735.8265    014   -3234.5617    005   -3067.0288
 -----------------------------------------------------------------
 -----------------------------------------------------------------
                 RPA Excited-State Multipoles, State    6   
                  LMN = < X^L Y^M Z^N >
 -----------------------------------------------------------------
    Charge (ESU x 10^10)
                 0.0000
    Dipole Moment (Debye)
         X      -0.5154      Y      -5.2138      Z      -3.2840
       Tot       6.1834
    Quadrupole Moments (Debye-Ang)
        XX     -78.5501     XY      31.1058     YY    -135.1386
        XZ     -13.5232     YZ     -13.6360     ZZ    -126.5242
    Octopole Moments (Debye-Ang^2)
       XXX      95.6981    XXY    -350.3127    XYY     157.8824
       YYY    -935.9097    XXZ     -24.9145    XYZ       5.4965
       YYZ     -87.2684    XZZ     117.0788    YZZ    -308.7119
       ZZZ    -187.4443
    Hexadecapole Moments (Debye-Ang^3)
      XXXX   -4259.8413   XXXY    -286.9246   XXYY   -2089.5627
      XYYY    -588.3318   YYYY   -8252.8059   XXXZ     215.1735
      XXYZ    -374.7589   XYYZ     263.1395   YYYZ    -588.7733
      XXZZ   -1140.9744   XYZZ    -270.7616   YYZZ   -1643.3126
      XZZZ     713.9262   YZZZ    -627.0972   ZZZZ   -1310.1242
    5th-Order Moments (Debye-Ang^4)
       500   16402.1046    410  -11713.8340    320   -2265.5689
       230  -10171.0166    140   -9160.0839    050  -66256.7817
       401   -3346.3008    311    1219.6545    221   -2252.7746
       131    1048.0718    041   -4918.2001    302    3459.7164
       212   -2293.4190    122   -1351.3180    032   -8487.4643
       203   -3446.0091    113     859.4957    023   -3155.8739
       104    2736.3251    014   -3273.6822    005   -3100.1648
 -----------------------------------------------------------------
 -----------------------------------------------------------------
                 RPA Excited-State Multipoles, State    7   
                  LMN = < X^L Y^M Z^N >
 -----------------------------------------------------------------
    Charge (ESU x 10^10)
                 0.0000
    Dipole Moment (Debye)
         X      -6.9617      Y      -1.5088      Z       3.0073
       Tot       7.7321
    Quadrupole Moments (Debye-Ang)
        XX     -56.8962     XY      33.4086     YY    -112.4068
        XZ     -14.1285     YZ      -7.9071     ZZ    -130.1578
    Octopole Moments (Debye-Ang^2)
       XXX      39.4148    XXY    -320.0197    XYY     182.5393
       YYY    -831.1716    XXZ      -9.3428    XYZ       2.7266
       YYZ     -77.0142    XZZ     104.0220    YZZ    -306.2184
       ZZZ    -169.9931
    Hexadecapole Moments (Debye-Ang^3)
      XXXX   -3958.0617   XXXY    -243.5501   XXYY   -1926.9642
      XYYY    -381.6684   YYYY   -7693.7979   XXXZ     170.7707
      XXYZ    -354.3575   XYYZ     260.1526   YYYZ    -557.0306
      XXZZ   -1112.1326   XYZZ    -276.4721   YYZZ   -1623.7299
      XZZZ     709.8688   YZZZ    -613.1708   ZZZZ   -1319.9422
    5th-Order Moments (Debye-Ang^4)
       500   15546.0785    410  -11420.4733    320   -2049.6382
       230   -9467.9838    140   -7938.3268    050  -63169.8034
       401   -3202.4831    311    1157.2957    221   -2207.5730
       131    1067.0056    041   -4758.0081    302    3380.9667
       212   -2247.8289    122   -1340.4787    032   -8389.8522
       203   -3403.3847    113     846.3658    023   -3128.5546
       104    2692.9622    014   -3259.8496    005   -3036.2008
 -----------------------------------------------------------------
 -----------------------------------------------------------------
                 RPA Excited-State Multipoles, State    8   
                  LMN = < X^L Y^M Z^N >
 -----------------------------------------------------------------
    Charge (ESU x 10^10)
                 0.0000
    Dipole Moment (Debye)
         X      -5.1455      Y      -1.4771      Z       1.9309
       Tot       5.6909
    Quadrupole Moments (Debye-Ang)
        XX     -65.8673     XY      33.0020     YY    -113.4470
        XZ     -11.6806     YZ      -8.1312     ZZ    -130.3151
    Octopole Moments (Debye-Ang^2)
       XXX      61.8820    XXY    -328.4927    XYY     178.9507
       YYY    -837.2157    XXZ     -11.7711    XYZ       5.5847
       YYZ     -76.4319    XZZ     104.7647    YZZ    -306.7555
       ZZZ    -172.2978
    Hexadecapole Moments (Debye-Ang^3)
      XXXX   -4079.4719   XXXY    -282.5014   XXYY   -1982.7720
      XYYY    -425.7046   YYYY   -7745.1520   XXXZ     170.2876
      XXYZ    -345.4465   XYYZ     274.0151   YYYZ    -549.1570
      XXZZ   -1108.5607   XYZZ    -279.8734   YYZZ   -1629.2452
      XZZZ     708.8915   YZZZ    -613.9239   ZZZZ   -1317.3482
    5th-Order Moments (Debye-Ang^4)
       500   15810.8472    410  -11387.8999    320   -2108.4752
       230   -9662.1731    140   -8188.7542    050  -63529.7191
       401   -3062.4505    311    1139.3240    221   -2196.4001
       131    1104.6313    041   -4736.3463    302    3301.9095
       212   -2242.1060    122   -1349.4417    032   -8418.0496
       203   -3366.4052    113     843.9986    023   -3132.4430
       104    2676.4210    014   -3258.7270    005   -3038.2883
 -----------------------------------------------------------------
 -----------------------------------------------------------------
                 RPA Excited-State Multipoles, State    9   
                  LMN = < X^L Y^M Z^N >
 -----------------------------------------------------------------
    Charge (ESU x 10^10)
                 0.0000
    Dipole Moment (Debye)
         X      -6.5258      Y       1.4798      Z       4.6132
       Tot       8.1276
    Quadrupole Moments (Debye-Ang)
        XX     -43.0578     XY      41.8923     YY     -95.0149
        XZ     -18.3939     YZ      -6.8083     ZZ    -129.4108
    Octopole Moments (Debye-Ang^2)
       XXX      10.0390    XXY    -299.1118    XYY     214.6287
       YYY    -749.1166    XXZ      -0.2855    XYZ      -3.6617
       YYZ     -74.5066    XZZ     102.2553    YZZ    -301.0912
       ZZZ    -164.6918
    Hexadecapole Moments (Debye-Ang^3)
      XXXX   -3673.8555   XXXY    -167.1548   XXYY   -1819.9655
      XYYY    -238.6736   YYYY   -7320.8235   XXXZ      98.3717
      XXYZ    -370.9298   XYYZ     229.6440   YYYZ    -555.7875
      XXZZ   -1087.8629   XYZZ    -268.7751   YYZZ   -1598.8404
      XZZZ     697.0508   YZZZ    -608.7598   ZZZZ   -1315.9605
    5th-Order Moments (Debye-Ang^4)
       500   14661.0499    410  -11177.0204    320   -1774.8497
       230   -9023.0945    140   -7315.4445    050  -61502.1106
       401   -3008.8536    311    1076.1265    221   -2279.0706
       131     938.1735    041   -4780.2671    302    3320.6694
       212   -2212.6963    122   -1306.4159    032   -8284.1214
       203   -3370.4522    113     828.8077    023   -3120.6985
       104    2678.2348    014   -3243.2412    005   -3006.3358
 -----------------------------------------------------------------
 -----------------------------------------------------------------
                 RPA Excited-State Multipoles, State   10   
                  LMN = < X^L Y^M Z^N >
 -----------------------------------------------------------------
    Charge (ESU x 10^10)
                 0.0000
    Dipole Moment (Debye)
         X      -0.4580      Y       6.6943      Z       4.3194
       Tot       7.9800
    Quadrupole Moments (Debye-Ang)
        XX     -64.6756     XY      47.0448     YY     -66.7077
        XZ     -10.9432     YZ       0.9147     ZZ    -128.3211
    Octopole Moments (Debye-Ang^2)
       XXX      80.1582    XXY    -316.6247    XYY     237.4801
       YYY    -572.0008    XXZ     -15.5990    XYZ      14.8148
       YYZ     -16.1877    XZZ     115.2372    YZZ    -282.7008
       ZZZ    -163.3340
    Hexadecapole Moments (Debye-Ang^3)
      XXXX   -4067.9052   XXXY    -209.4690   XXYY   -1922.9652
      XYYY    -167.2156   YYYY   -6248.2428   XXXZ     185.8090
      XXYZ    -366.1770   XYYZ     317.2107   YYYZ    -174.0391
      XXZZ   -1121.8280   XYZZ    -240.9255   YYZZ   -1479.8073
      XZZZ     725.1134   YZZZ    -570.1670   ZZZZ   -1309.5983
    5th-Order Moments (Debye-Ang^4)
       500   15953.9783    410  -11480.3177    320   -1937.5828
       230   -9392.8870    140   -6904.3553    050  -54820.7713
       401   -3261.9488    311    1196.1577    221   -2199.8282
       131    1401.2774    041   -2377.1152    302    3437.4043
       212   -2234.7405    122   -1171.6502    032   -7531.1009
       203   -3415.6220    113     907.1513    023   -2850.8732
       104    2736.2573    014   -3150.3283    005   -2994.3218
 -----------------------------------------------------------------
 -----------------------------------------------------------------
                 RPA Excited-State Multipoles, State   11   
                  LMN = < X^L Y^M Z^N >
 -----------------------------------------------------------------
    Charge (ESU x 10^10)
                 0.0000
    Dipole Moment (Debye)
         X     -12.2161      Y      -4.5183      Z       4.3799
       Tot      13.7416
    Quadrupole Moments (Debye-Ang)
        XX     -39.1750     XY      26.3911     YY    -127.3094
        XZ     -21.2301     YZ      -8.1931     ZZ    -128.0778
    Octopole Moments (Debye-Ang^2)
       XXX     -86.6879    XXY    -321.7209    XYY     161.9409
       YYY    -892.1508    XXZ      37.1085    XYZ       2.7801
       YYZ     -76.4380    XZZ      83.8672    YZZ    -307.6377
       ZZZ    -160.6983
    Hexadecapole Moments (Debye-Ang^3)
      XXXX   -3336.0964   XXXY    -384.5221   XXYY   -2017.6502
      XYYY    -518.5959   YYYY   -8008.2705   XXXZ     -90.4274
      XXYZ    -329.0499   XYYZ     261.7878   YYYZ    -557.3765
      XXZZ   -1001.5797   XYZZ    -292.7823   YYZZ   -1633.4071
      XZZZ     657.6875   YZZZ    -608.2925   ZZZZ   -1297.4564
    5th-Order Moments (Debye-Ang^4)
       500   11669.3561    410  -11030.8629    320   -2327.8090
       230   -9899.9854    140   -8683.7546    050  -64837.1107
       401   -1665.1610    311     993.6934    221   -2164.8361
       131    1083.7203    041   -4762.0654    302    2704.7985
       212   -2175.0736    122   -1372.3958    032   -8435.0664
       203   -3081.7918    113     814.4523    023   -3120.2050
       104    2533.2761    014   -3249.3935    005   -2951.6446
 -----------------------------------------------------------------
 -----------------------------------------------------------------
                 RPA Excited-State Multipoles, State   12   
                  LMN = < X^L Y^M Z^N >
 -----------------------------------------------------------------
    Charge (ESU x 10^10)
                 0.0000
    Dipole Moment (Debye)
         X      -3.2926      Y       0.6218      Z       2.0831
       Tot       3.9455
    Quadrupole Moments (Debye-Ang)
        XX     -56.2829     XY      44.7794     YY     -96.6446
        XZ     -13.3240     YZ      -8.0684     ZZ    -129.6482
    Octopole Moments (Debye-Ang^2)
       XXX      63.9065    XXY    -304.7238    XYY     232.6151
       YYY    -732.3111    XXZ     -13.4603    XYZ       6.0178
       YYZ     -70.8306    XZZ     109.5066    YZZ    -302.9069
       ZZZ    -172.6357
    Hexadecapole Moments (Debye-Ang^3)
      XXXX   -3945.6247   XXXY    -150.4842   XXYY   -1814.0372
      XYYY    -118.4527   YYYY   -7099.1002   XXXZ     179.0143
      XXYZ    -358.9184   XYYZ     275.4995   YYYZ    -506.9021
      XXZZ   -1114.7432   XYZZ    -264.3072   YYZZ   -1603.7477
      XZZZ     711.2159   YZZZ    -613.0094   ZZZZ   -1316.9761
    5th-Order Moments (Debye-Ang^4)
       500   15810.9504    410  -11251.8093    320   -1629.6804
       230   -8791.2897    140   -6462.3203    050  -59598.2024
       401   -3242.5265    311    1168.4692    221   -2203.9188
       131    1152.8529    041   -4420.1355    302    3414.1081
       212   -2234.3960    122   -1289.4869    032   -8264.5104
       203   -3412.9366    113     852.6372    023   -3106.6661
       104    2709.3008    014   -3244.9010    005   -3043.8755
 -----------------------------------------------------------------
 -----------------------------------------------------------------
                 RPA Excited-State Multipoles, State   13   
                  LMN = < X^L Y^M Z^N >
 -----------------------------------------------------------------
    Charge (ESU x 10^10)
                 0.0000
    Dipole Moment (Debye)
         X      -5.9321      Y      -1.9897      Z       2.1023
       Tot       6.6006
    Quadrupole Moments (Debye-Ang)
        XX     -63.5069     XY      29.1420     YY    -117.8762
        XZ     -14.5964     YZ      -7.5195     ZZ    -128.7090
    Octopole Moments (Debye-Ang^2)
       XXX      42.5270    XXY    -316.6161    XYY     172.1575
       YYY    -854.7548    XXZ       4.4679    XYZ      -0.3208
       YYZ     -75.8844    XZZ      95.7185    YZZ    -304.1548
       ZZZ    -167.0359
    Hexadecapole Moments (Debye-Ang^3)
      XXXX   -3984.4899   XXXY    -370.3051   XXYY   -1989.8319
      XYYY    -461.8232   YYYY   -7832.3084   XXXZ      80.0116
      XXYZ    -314.6776   XYYZ     267.1510   YYYZ    -548.5513
      XXZZ   -1061.1975   XYZZ    -295.8451   YYZZ   -1628.6811
      XZZZ     682.6148   YZZZ    -606.5106   ZZZZ   -1306.2428
    5th-Order Moments (Debye-Ang^4)
       500   15191.1593    410  -11004.4664    320   -2219.6298
       230   -9723.8973    140   -8364.2656    050  -63963.9139
       401   -2554.6861    311     972.5733    221   -2165.5716
       131    1088.0488    041   -4738.5634    302    3035.2499
       212   -2165.9709    122   -1367.7388    032   -8419.7023
       203   -3223.3998    113     806.9369    023   -3122.6573
       104    2600.9722    014   -3241.4309    005   -2983.0678
 -----------------------------------------------------------------
 -----------------------------------------------------------------
                 RPA Excited-State Multipoles, State   14   
                  LMN = < X^L Y^M Z^N >
 -----------------------------------------------------------------
    Charge (ESU x 10^10)
                 0.0000
    Dipole Moment (Debye)
         X     -11.0687      Y      -3.7433      Z       4.1664
       Tot      12.4051
    Quadrupole Moments (Debye-Ang)
        XX     -37.5927     XY      30.4108     YY    -121.0064
        XZ     -21.6612     YZ      -7.6097     ZZ    -127.5809
    Octopole Moments (Debye-Ang^2)
       XXX     -91.1603    XXY    -318.1635    XYY     176.5312
       YYY    -855.8350    XXZ      40.8488    XYZ       2.8656
       YYZ     -72.2346    XZZ      83.5445    YZZ    -305.7500
       ZZZ    -159.9438
    Hexadecapole Moments (Debye-Ang^3)
      XXXX   -3269.2962   XXXY    -354.9268   XXYY   -1974.4329
      XYYY    -428.9898   YYYY   -7783.7107   XXXZ    -110.4663
      XXYZ    -322.1821   XYYZ     268.2702   YYYZ    -528.4650
      XXZZ    -993.0116   XYZZ    -291.5558   YYZZ   -1623.8668
      XZZZ     654.4294   YZZZ    -604.7414   ZZZZ   -1298.0577
    5th-Order Moments (Debye-Ang^4)
       500   11427.5248    410  -10966.1486    320   -2214.3458
       230   -9665.0851    140   -8165.2545    050  -63461.2129
       401   -1558.5590    311     968.9808    221   -2149.1401
       131    1123.8344    041   -4578.7539    302    2664.4471
       212   -2158.2217    122   -1359.6510    032   -8376.3840
       203   -3061.8291    113     810.0595    023   -3101.4518
       104    2530.5566    014   -3241.2196    005   -2939.7826
 -----------------------------------------------------------------
 Total job time:  7658.83s(wall), 110076.19s(cpu) 
 Fri Jan 31 03:30:05 2025

        *************************************************************
        *                                                           *
        *  Thank you very much for using Q-Chem.  Have a nice day.  *
        *                                                           *
        *************************************************************


