
Running Job 1 of 1 Delphinidin_Q4_tddft_full.in
qchem Delphinidin_Q4_tddft_full.in_3760418.0 /data/brussel/103/vsc10365/activedata/TDDFTAnthocyanidines/qchem3760418/ 1
/apps/brussel/RL8/skylake/software/Q-Chem/6.2.0/exe/qcprog.exe_s Delphinidin_Q4_tddft_full.in_3760418.0 /data/brussel/103/vsc10365/activedata/TDDFTAnthocyanidines/qchem3760418/
                  Welcome to Q-Chem
     A Quantum Leap Into The Future Of Chemistry


 Q-Chem 6.2, Q-Chem, Inc., Pleasanton, CA (2024)

 License issued to: SRG Prof. Dr. Frank De Proft, Vrije Universiteit Brussel

 E. Epifanovsky,  A. T. B. Gilbert,  Xintian Feng,  Joonho Lee,  Yuezhi Mao,  
 N. Mardirossian,  P. Pokhilko,  A. White,  M. Wormit,  M. P. Coons,  
 A. L. Dempwolff,  Zhengting Gan,  D. Hait,  P. R. Horn,  L. D. Jacobson,  
 I. Kaliman,  J. Kussmann,  A. W. Lange,  Ka Un Lao,  D. S. Levine,  Jie Liu,  
 S. C. McKenzie,  A. F. Morrison,  K. D. Nanda,  F. Plasser,  D. R. Rehn,  
 M. L. Vidal,  Zhi-Qiang You,  Ying Zhu,  Huseyin Aksu,  B. Alam,  
 B. Albrecht,  A. Aldossary,  E. Alguire,  J. H. Andersen,  
 J. E. Arias-Martinez,  V. Athavale,  D. Barton,  K. Begam,  A. Behn,  
 N. Bellonzi,  Y. A. Bernard,  E. J. Berquist,  H. Burton,  A. Carreras,  
 K. Carter-Fenk,  Mathew Chow,  Romit Chakraborty,  Chandrima Chakravarty,  
 Junhan Chen,  A. D. Chien,  K. D. Closser,  V. Cofer-Shabica,  L. Cunha,  
 S. Dasgupta,  Jia Deng,  Joseph Dickinson,  M. de Wergifosse,  
 M. Diedenhofen,  Hainam Do,  Wenjie Dou,  S. Ehlert,  Po-Tung Fang,  
 S. Fatehi,  Qingguo Feng,  Jonathan Fetherolf,  T. Friedhoff,  
 Thomas Froitzheim,  Sarai Folkestad,  B. Ganoe,  J. Gayvert,  Qinghui Ge,  
 G. Gidofalvi,  M. Gimferrer,  M. Goldey,  Montgomery Gray,  J. Gomes,  
 C. Gonzalez-Espinoza,  S. Gulania,  A. Gunina,  J. A. Gyamfi,  
 M. W. D. Hanson-Heine,  P. H. P. Harbach,  A. W. Hauser,  M. F. Herbst,  
 M. Hernandez Vera,  M. Hodecker,  Z. C. Holden,  S. Houck,  Xunkun Huang,  
 Kerwin Hui,  B. C. Huynh,  K. Ikeda,  M. Ivanov,  Nayanthara K. Jayadev,  
 Hyunjun Ji,  Zuxin Jin,  Hanjie Jiang,  Subrata Jana,  B. Kaduk,  
 S. Kaehler,  R. Kang,  K. Khistyaev,  Jaehoon Kim,  Yongbin Kim,  
 P. Klunzinger,  Z. Koczor-Benda,  Joong Hoon Koh,  D. Kosenkov,  
 Saikiran Kotaru,  L. Koulias,  T. Kowalczyk,  C. M. Krauter,  K. Kue,  
 A. Kunitsa,  T. Kus,  A. Landau,  K. V. Lawler,  D. Lefrancois,  S. Lehtola,  
 Rain Li,  Shaozhi Li,  Tao E. Li,  Yi-Pei Li,  Jiashu Liang,  M. Liebenthal,  
 Hung-Hsuan Lin,  You-Sheng Lin,  Fenglai Liu,  Kuan-Yu Liu,  Xiao Liu,  
 M. Loipersberger,  A. Luenser,  C. Malbon,  Aniket Mandal,  Manisha,  
 A. Manjanath,  P. Manohar,  E. Mansoor,  S. F. Manzer,  Shan-Ping Mao,  
 A. V. Marenich,  T. Markovich,  S. Mason,  F. Matz,  S. A. Maurer,  
 Samuel May,  Alexandra McIsaac,  P. F. McLaughlin,  M. F. S. J. Menger,  
 J.-M. Mewes,  S. A. Mewes,  P. Morgante,  Mohammad Mostafanejad,  
 Madhubani Mukherjee,  J. W. Mullinax,  Quyen Nguyen,  Avik Kumar Ojha,  
 K. J. Oosterbaan,  Eno Paenurk,  Xiaoliang Pan,  G. Paran,  V. Parravicini,  
 Alexander C. Paul,  Suranjan K. Paul,  F. Pavosevic,  Zheng Pei,  S. Prager,  
 E. I. Proynov,  E. Ramos,  B. Rana,  A. E. Rask,  A. Rettig,  R. M. Richard,  
 F. Rob,  E. Rossomme,  T. Scheele,  M. Scheurer,  M. Schneider,  
 P. E. Schneider,  Tim K. Schramm,  N. Sergueev,  S. M. Sharada,  
 Hengyuan Shen,  W. Skomorowski,  D. W. Small,  C. J. Stein,  
 Alistair J. Sterling,  Yingli Su,  Yu-Chuan Su,  E. J. Sundstrom,  
 J. Talbot,  Zhen Tao,  J. Thirman,  Hung-Yi Tsai,  T. Tsuchimochi,  
 N. M. Tubman,  C. Utku,  S. P. Veccham,  O. Vydrov,  Rahel Weiss,  
 J. Wenzel,  Jonathan Wong,  J. Witte,  H. Wu,  Yanze Wu,  A. Yamada,  
 Chou-Hsun Yang,  Kun Yao,  S. Yeganeh,  S. R. Yost,  Qi Yu,  A. Zech,  
 F. Zeller,  Chongxiao Zhao,  Igor Ying Zhang,  Xing Zhang,  Yu Zhang,  
 D. Zuev,  A. Aspuru-Guzik,  A. T. Bell,  N. A. Besley,  K. B. Bravaya,  
 B. R. Brooks,  D. Casanova,  Jeng-Da Chai,  Hsing-Ta Chen,  S. Coriani,  
 C. J. Cramer,  A. E. DePrince, III,  R. A. DiStasio Jr.,  A. Dreuw,  
 B. D. Dunietz,  T. R. Furlani,  W. A. Goddard III,  S. Grimme,  
 S. Hammes-Schiffer,  T. Head-Gordon,  W. J. Hehre,  Chao-Ping Hsu,  
 T.-C. Jagau,  Yousung Jung,  A. Klamt,  Jing Kong,  D. S. Lambrecht,  
 Xiangyuan Li,  WanZhen Liang,  N. J. Mayhall,  C. W. McCurdy,  J. B. Neaton,  
 T. Neudecker,  C. Ochsenfeld,  J. A. Parkhill,  R. Peverati,  
 V. A. Rassolov,  Haisheng Ren,  Yihan Shao,  L. V. Slipchenko,  
 R. P. Steele,  J. E. Subotnik,  A. J. W. Thom,  A. Tkatchenko,  
 D. G. Truhlar,  T. Van Voorhis,  Fan Wang,  T. A. Wesolowski,  K. B. Whaley,  
 H. L. Woodcock III,  P. M. Zimmerman,  S. Faraji,  P. M. W. Gill,  
 M. Head-Gordon,  J. M. Herbert,  A. I. Krylov

 Contributors to earlier versions of Q-Chem not listed above: 
 R. D. Adamson,  B. Austin,  R. Baer,  J. Baker,  G. J. O. Beran,  
 K. Brandhorst,  S. T. Brown,  E. F. C. Byrd,  Arup K. Chakraborty,  
 G. K. L. Chan,  Chun-Min Chang,  Yunqing Chen,  C.-L. Cheng,  
 Siu Hung Chien,  D. M. Chipman,  D. L. Crittenden,  H. Dachsel,  
 R. J. Doerksen,  A. D. Dutoi,  R. G. Edgar,  J. Fosso-Tande,  
 L. Fusti-Molnar,  D. Ghosh,  A. Ghysels,  A. Golubeva-Zadorozhnaya,  
 J. Gonthier,  M. S. Gordon,  S. R. Gwaltney,  G. Hawkins,  J. E. Herr,  
 A. Heyden,  S. Hirata,  E. G. Hohenstein,  G. Kedziora,  F. J. Keil,  
 C. Kelley,  Jihan Kim,  R. A. King,  R. Z. Khaliullin,  P. P. Korambath,  
 W. Kurlancheek,  A. Laurent,  A. M. Lee,  M. S. Lee,  S. V. Levchenko,  
 Ching Yeh Lin,  D. Liotard,  E. Livshits,  R. C. Lochan,  I. Lotan,  
 L. A. Martinez-Martinez,  P. E. Maslen,  N. Nair,  D. P. O'Neill,  
 D. Neuhauser,  E. Neuscamman,  C. M. Oana,  R. Olivares-Amaya,  R. Olson,  
 T. M. Perrine,  B. Peters,  P. A. Pieniazek,  A. Prociuk,  Y. M. Rhee,  
 J. Ritchie,  M. A. Rohrdanz,  E. Rosta,  N. J. Russ,  H. F. Schaefer III,  
 M. W. Schmidt,  N. E. Schultz,  S. Sharma,  N. Shenvi,  C. D. Sherrill,  
 A. C. Simmonett,  A. Sodt,  T. Stein,  D. Stuck,  K. S. Thanthiriwatte,  
 V. Vanovschi,  L. Vogt,  Tao Wang,  A. Warshel,  M. A. Watson,  
 C. F. Williams,  Q. Wu,  X. Xu,  Jun Yang,  W. Zhang,  Yan Zhao

   Please cite Q-Chem as follows:
  "Software for the frontiers of quantum chemistry:
   An overview of developments in the Q-Chem 5 package"
   J. Chem. Phys. 155, 084801 (2021)
   https://doi.org/10.1063/5.0055522 (open access)

 Q-Chem 6.2.0 for Intel X86 EM64T Linux

 Parts of Q-Chem use Armadillo 9.900.5 (Nocturnal Misbehaviour).
 http://arma.sourceforge.net/

 Q-Chem begins on Fri Jan 31 02:09:26 2025  

 Host: 
0

     Scratch files written to /data/brussel/103/vsc10365/activedata/TDDFTAnthocyanidines/qchem3760418//
 May224 |scratch|qcdevops|jenkins|workspace|build_RNUM -1
 Processing $rem in /apps/brussel/RL8/skylake/software/Q-Chem/6.2.0/config/preferences:
 Processing $rem in /user/brussel/103/vsc10365/.qchemrc:
 Symmetry turned off for PCM/SM12/SMD calculation

 Checking the input file for inconsistencies... 	...done.

--------------------------------------------------------------
User input:
--------------------------------------------------------------
$comment
TDDFT calculation of delphinidin Q4 structure
nprocs=16
mem=64gb
$end

$molecule
0 1
C   -4.8112795    0.9737857    1.7954967
C   -4.7467916   -0.2809365    1.0751437
C   -3.6689411   -0.6253870    0.3215701
C   -2.5418087    0.2573894    0.2109637
C   -2.6212185    1.4920180    0.9245650
C   -3.6914944    1.8570726    1.6893040
C   -1.4074262   -0.0035022   -0.5201994
C   -0.3478753    0.9132092   -0.5773452
C   -0.4440329    2.1111263    0.1077852
O   -1.5701855    2.3500683    0.8257303
C    0.5220628    3.1970005    0.1947189
C    1.5698426    3.3298129   -0.7319057
C    2.4493589    4.3933766   -0.6324086
C    2.3170617    5.3385975    0.3851956
C    1.2804251    5.2027372    1.3105715
C    0.3882644    4.1509520    1.2172558
O   -5.8325909    1.2634990    2.4917419
H   -5.5930041   -0.9531725    1.1531824
O   -3.5700446   -1.7973650   -0.3659524
H   -3.7028071    2.8049134    2.2096552
H   -1.3116010   -0.9364201   -1.0624376
O    0.7840470    0.6242863   -1.2861627
H    1.6941600    2.6287669   -1.5412740
O    3.4895394    4.5997291   -1.5034247
O    3.1629295    6.4002548    0.5215641
O    1.1325877    6.1119709    2.3269963
H   -0.4015643    4.0766593    1.9493947
H   -4.3693856   -2.3268798   -0.2289852
H    0.7096535   -0.2609387   -1.6706486
H    3.8304563    6.3826877   -0.1808581
H    3.5039519    3.9047044   -2.1765279
H    1.8324006    6.7793637    2.2713150
$end

$rem
BASIS  =  def2-ma-TZVP
MEM_STATIC  =  2000
MEM_TOTAL  =  64000
METHOD  =  CAM-B3LYP
SOLVENT_METHOD = pcm
SYMMETRY_IGNORE  =  1
CIS_N_ROOTS = 7
CIS_SINGLETS = true
CIS_TRIPLETS = true
CISTR_PRINT = true
RPA = true
PRINT_ORBITALS = true
SCF_PRINT = 1
SCF_FINAL_PRINT = 2
PRINT_GENERAL_BASIS = true
CISTR_PRINT = true
PRINT_RADII_GYRE = true
MULTIPOLE_ORDER = 5
CIS_AMPL_PRINT = 5
CIS_AMPL_ANAL = true
STATE_ANALYSIS = true
$end

$pcm
Theory   CPCM
Method   SWIG
Solver   Inversion
Radii    Bondi
$end

$solvent
Dielectric         78.39
OpticalDielectric  1.777849
$end


--------------------------------------------------------------
 ----------------------------------------------------------------
             Standard Nuclear Orientation (Angstroms)
    I     Atom           X                Y                Z
 ----------------------------------------------------------------
    1      C      -4.8112795000     0.9737857000     1.7954967000
    2      C      -4.7467916000    -0.2809365000     1.0751437000
    3      C      -3.6689411000    -0.6253870000     0.3215701000
    4      C      -2.5418087000     0.2573894000     0.2109637000
    5      C      -2.6212185000     1.4920180000     0.9245650000
    6      C      -3.6914944000     1.8570726000     1.6893040000
    7      C      -1.4074262000    -0.0035022000    -0.5201994000
    8      C      -0.3478753000     0.9132092000    -0.5773452000
    9      C      -0.4440329000     2.1111263000     0.1077852000
   10      O      -1.5701855000     2.3500683000     0.8257303000
   11      C       0.5220628000     3.1970005000     0.1947189000
   12      C       1.5698426000     3.3298129000    -0.7319057000
   13      C       2.4493589000     4.3933766000    -0.6324086000
   14      C       2.3170617000     5.3385975000     0.3851956000
   15      C       1.2804251000     5.2027372000     1.3105715000
   16      C       0.3882644000     4.1509520000     1.2172558000
   17      O      -5.8325909000     1.2634990000     2.4917419000
   18      H      -5.5930041000    -0.9531725000     1.1531824000
   19      O      -3.5700446000    -1.7973650000    -0.3659524000
   20      H      -3.7028071000     2.8049134000     2.2096552000
   21      H      -1.3116010000    -0.9364201000    -1.0624376000
   22      O       0.7840470000     0.6242863000    -1.2861627000
   23      H       1.6941600000     2.6287669000    -1.5412740000
   24      O       3.4895394000     4.5997291000    -1.5034247000
   25      O       3.1629295000     6.4002548000     0.5215641000
   26      O       1.1325877000     6.1119709000     2.3269963000
   27      H      -0.4015643000     4.0766593000     1.9493947000
   28      H      -4.3693856000    -2.3268798000    -0.2289852000
   29      H       0.7096535000    -0.2609387000    -1.6706486000
   30      H       3.8304563000     6.3826877000    -0.1808581000
   31      H       3.5039519000     3.9047044000    -2.1765279000
   32      H       1.8324006000     6.7793637000     2.2713150000
 ----------------------------------------------------------------
 Nuclear Repulsion Energy =        1702.45716899 hartrees
 There are       78 alpha and       78 beta electrons
 Requested basis set is def2-ma-TZVP
 Basis set in general basis input format:
-----------------------------------------------------------------------
$basis
C    0
S    6    1.000000
   1.35753497E+04    2.22458144E-04 
   2.03523337E+03    1.72327383E-03 
   4.63225624E+02    8.92557153E-03 
   1.31200196E+02    3.57279845E-02 
   4.28530159E+01    1.10762599E-01 
   1.55841858E+01    2.42956276E-01 
S    2    1.000000
   6.20671385E+00    4.14402634E-01 
   2.57648965E+00    2.37449687E-01 
S    1    1.000000
   5.76963394E-01    1.00000000E+00 
S    1    1.000000
   2.29728314E-01    1.00000000E+00 
S    1    1.000000
   9.51644400E-02    1.00000000E+00 
S    1    1.000000
   4.84754014E-02    1.00000000E+00 
P    4    1.000000
   3.46972322E+01    5.33336578E-03 
   7.95826228E+00    3.58641091E-02 
   2.37808269E+00    1.42158733E-01 
   8.14332082E-01    3.42704718E-01 
P    1    1.000000
   2.88875473E-01    4.64458224E-01 
P    1    1.000000
   1.00568237E-01    2.49557899E-01 
D    1    1.000000
   1.09700000E+00    1.00000000E+00 
D    1    1.000000
   3.18000000E-01    1.00000000E+00 
F    1    1.000000
   7.61000000E-01    1.00000000E+00 
****
C    0
S    6    1.000000
   1.35753497E+04    2.22458144E-04 
   2.03523337E+03    1.72327383E-03 
   4.63225624E+02    8.92557153E-03 
   1.31200196E+02    3.57279845E-02 
   4.28530159E+01    1.10762599E-01 
   1.55841858E+01    2.42956276E-01 
S    2    1.000000
   6.20671385E+00    4.14402634E-01 
   2.57648965E+00    2.37449687E-01 
S    1    1.000000
   5.76963394E-01    1.00000000E+00 
S    1    1.000000
   2.29728314E-01    1.00000000E+00 
S    1    1.000000
   9.51644400E-02    1.00000000E+00 
S    1    1.000000
   4.84754014E-02    1.00000000E+00 
P    4    1.000000
   3.46972322E+01    5.33336578E-03 
   7.95826228E+00    3.58641091E-02 
   2.37808269E+00    1.42158733E-01 
   8.14332082E-01    3.42704718E-01 
P    1    1.000000
   2.88875473E-01    4.64458224E-01 
P    1    1.000000
   1.00568237E-01    2.49557899E-01 
D    1    1.000000
   1.09700000E+00    1.00000000E+00 
D    1    1.000000
   3.18000000E-01    1.00000000E+00 
F    1    1.000000
   7.61000000E-01    1.00000000E+00 
****
C    0
S    6    1.000000
   1.35753497E+04    2.22458144E-04 
   2.03523337E+03    1.72327383E-03 
   4.63225624E+02    8.92557153E-03 
   1.31200196E+02    3.57279845E-02 
   4.28530159E+01    1.10762599E-01 
   1.55841858E+01    2.42956276E-01 
S    2    1.000000
   6.20671385E+00    4.14402634E-01 
   2.57648965E+00    2.37449687E-01 
S    1    1.000000
   5.76963394E-01    1.00000000E+00 
S    1    1.000000
   2.29728314E-01    1.00000000E+00 
S    1    1.000000
   9.51644400E-02    1.00000000E+00 
S    1    1.000000
   4.84754014E-02    1.00000000E+00 
P    4    1.000000
   3.46972322E+01    5.33336578E-03 
   7.95826228E+00    3.58641091E-02 
   2.37808269E+00    1.42158733E-01 
   8.14332082E-01    3.42704718E-01 
P    1    1.000000
   2.88875473E-01    4.64458224E-01 
P    1    1.000000
   1.00568237E-01    2.49557899E-01 
D    1    1.000000
   1.09700000E+00    1.00000000E+00 
D    1    1.000000
   3.18000000E-01    1.00000000E+00 
F    1    1.000000
   7.61000000E-01    1.00000000E+00 
****
C    0
S    6    1.000000
   1.35753497E+04    2.22458144E-04 
   2.03523337E+03    1.72327383E-03 
   4.63225624E+02    8.92557153E-03 
   1.31200196E+02    3.57279845E-02 
   4.28530159E+01    1.10762599E-01 
   1.55841858E+01    2.42956276E-01 
S    2    1.000000
   6.20671385E+00    4.14402634E-01 
   2.57648965E+00    2.37449687E-01 
S    1    1.000000
   5.76963394E-01    1.00000000E+00 
S    1    1.000000
   2.29728314E-01    1.00000000E+00 
S    1    1.000000
   9.51644400E-02    1.00000000E+00 
S    1    1.000000
   4.84754014E-02    1.00000000E+00 
P    4    1.000000
   3.46972322E+01    5.33336578E-03 
   7.95826228E+00    3.58641091E-02 
   2.37808269E+00    1.42158733E-01 
   8.14332082E-01    3.42704718E-01 
P    1    1.000000
   2.88875473E-01    4.64458224E-01 
P    1    1.000000
   1.00568237E-01    2.49557899E-01 
D    1    1.000000
   1.09700000E+00    1.00000000E+00 
D    1    1.000000
   3.18000000E-01    1.00000000E+00 
F    1    1.000000
   7.61000000E-01    1.00000000E+00 
****
C    0
S    6    1.000000
   1.35753497E+04    2.22458144E-04 
   2.03523337E+03    1.72327383E-03 
   4.63225624E+02    8.92557153E-03 
   1.31200196E+02    3.57279845E-02 
   4.28530159E+01    1.10762599E-01 
   1.55841858E+01    2.42956276E-01 
S    2    1.000000
   6.20671385E+00    4.14402634E-01 
   2.57648965E+00    2.37449687E-01 
S    1    1.000000
   5.76963394E-01    1.00000000E+00 
S    1    1.000000
   2.29728314E-01    1.00000000E+00 
S    1    1.000000
   9.51644400E-02    1.00000000E+00 
S    1    1.000000
   4.84754014E-02    1.00000000E+00 
P    4    1.000000
   3.46972322E+01    5.33336578E-03 
   7.95826228E+00    3.58641091E-02 
   2.37808269E+00    1.42158733E-01 
   8.14332082E-01    3.42704718E-01 
P    1    1.000000
   2.88875473E-01    4.64458224E-01 
P    1    1.000000
   1.00568237E-01    2.49557899E-01 
D    1    1.000000
   1.09700000E+00    1.00000000E+00 
D    1    1.000000
   3.18000000E-01    1.00000000E+00 
F    1    1.000000
   7.61000000E-01    1.00000000E+00 
****
C    0
S    6    1.000000
   1.35753497E+04    2.22458144E-04 
   2.03523337E+03    1.72327383E-03 
   4.63225624E+02    8.92557153E-03 
   1.31200196E+02    3.57279845E-02 
   4.28530159E+01    1.10762599E-01 
   1.55841858E+01    2.42956276E-01 
S    2    1.000000
   6.20671385E+00    4.14402634E-01 
   2.57648965E+00    2.37449687E-01 
S    1    1.000000
   5.76963394E-01    1.00000000E+00 
S    1    1.000000
   2.29728314E-01    1.00000000E+00 
S    1    1.000000
   9.51644400E-02    1.00000000E+00 
S    1    1.000000
   4.84754014E-02    1.00000000E+00 
P    4    1.000000
   3.46972322E+01    5.33336578E-03 
   7.95826228E+00    3.58641091E-02 
   2.37808269E+00    1.42158733E-01 
   8.14332082E-01    3.42704718E-01 
P    1    1.000000
   2.88875473E-01    4.64458224E-01 
P    1    1.000000
   1.00568237E-01    2.49557899E-01 
D    1    1.000000
   1.09700000E+00    1.00000000E+00 
D    1    1.000000
   3.18000000E-01    1.00000000E+00 
F    1    1.000000
   7.61000000E-01    1.00000000E+00 
****
C    0
S    6    1.000000
   1.35753497E+04    2.22458144E-04 
   2.03523337E+03    1.72327383E-03 
   4.63225624E+02    8.92557153E-03 
   1.31200196E+02    3.57279845E-02 
   4.28530159E+01    1.10762599E-01 
   1.55841858E+01    2.42956276E-01 
S    2    1.000000
   6.20671385E+00    4.14402634E-01 
   2.57648965E+00    2.37449687E-01 
S    1    1.000000
   5.76963394E-01    1.00000000E+00 
S    1    1.000000
   2.29728314E-01    1.00000000E+00 
S    1    1.000000
   9.51644400E-02    1.00000000E+00 
S    1    1.000000
   4.84754014E-02    1.00000000E+00 
P    4    1.000000
   3.46972322E+01    5.33336578E-03 
   7.95826228E+00    3.58641091E-02 
   2.37808269E+00    1.42158733E-01 
   8.14332082E-01    3.42704718E-01 
P    1    1.000000
   2.88875473E-01    4.64458224E-01 
P    1    1.000000
   1.00568237E-01    2.49557899E-01 
D    1    1.000000
   1.09700000E+00    1.00000000E+00 
D    1    1.000000
   3.18000000E-01    1.00000000E+00 
F    1    1.000000
   7.61000000E-01    1.00000000E+00 
****
C    0
S    6    1.000000
   1.35753497E+04    2.22458144E-04 
   2.03523337E+03    1.72327383E-03 
   4.63225624E+02    8.92557153E-03 
   1.31200196E+02    3.57279845E-02 
   4.28530159E+01    1.10762599E-01 
   1.55841858E+01    2.42956276E-01 
S    2    1.000000
   6.20671385E+00    4.14402634E-01 
   2.57648965E+00    2.37449687E-01 
S    1    1.000000
   5.76963394E-01    1.00000000E+00 
S    1    1.000000
   2.29728314E-01    1.00000000E+00 
S    1    1.000000
   9.51644400E-02    1.00000000E+00 
S    1    1.000000
   4.84754014E-02    1.00000000E+00 
P    4    1.000000
   3.46972322E+01    5.33336578E-03 
   7.95826228E+00    3.58641091E-02 
   2.37808269E+00    1.42158733E-01 
   8.14332082E-01    3.42704718E-01 
P    1    1.000000
   2.88875473E-01    4.64458224E-01 
P    1    1.000000
   1.00568237E-01    2.49557899E-01 
D    1    1.000000
   1.09700000E+00    1.00000000E+00 
D    1    1.000000
   3.18000000E-01    1.00000000E+00 
F    1    1.000000
   7.61000000E-01    1.00000000E+00 
****
C    0
S    6    1.000000
   1.35753497E+04    2.22458144E-04 
   2.03523337E+03    1.72327383E-03 
   4.63225624E+02    8.92557153E-03 
   1.31200196E+02    3.57279845E-02 
   4.28530159E+01    1.10762599E-01 
   1.55841858E+01    2.42956276E-01 
S    2    1.000000
   6.20671385E+00    4.14402634E-01 
   2.57648965E+00    2.37449687E-01 
S    1    1.000000
   5.76963394E-01    1.00000000E+00 
S    1    1.000000
   2.29728314E-01    1.00000000E+00 
S    1    1.000000
   9.51644400E-02    1.00000000E+00 
S    1    1.000000
   4.84754014E-02    1.00000000E+00 
P    4    1.000000
   3.46972322E+01    5.33336578E-03 
   7.95826228E+00    3.58641091E-02 
   2.37808269E+00    1.42158733E-01 
   8.14332082E-01    3.42704718E-01 
P    1    1.000000
   2.88875473E-01    4.64458224E-01 
P    1    1.000000
   1.00568237E-01    2.49557899E-01 
D    1    1.000000
   1.09700000E+00    1.00000000E+00 
D    1    1.000000
   3.18000000E-01    1.00000000E+00 
F    1    1.000000
   7.61000000E-01    1.00000000E+00 
****
O    0
S    6    1.000000
   2.70323826E+04    2.17263025E-04 
   4.05238714E+03    1.68386622E-03 
   9.22327227E+02    8.73956163E-03 
   2.61240710E+02    3.52399688E-02 
   8.53546414E+01    1.11535191E-01 
   3.10350352E+01    2.55889540E-01 
S    2    1.000000
   1.22608607E+01    3.97687309E-01 
   4.99870760E+00    2.46278494E-01 
S    1    1.000000
   1.17031082E+00    1.00000000E+00 
S    1    1.000000
   4.64747410E-01    1.00000000E+00 
S    1    1.000000
   1.85045364E-01    1.00000000E+00 
S    1    1.000000
   7.02880263E-02    1.00000000E+00 
P    4    1.000000
   6.32749548E+01    6.06851034E-03 
   1.46270494E+01    4.19125758E-02 
   4.45012235E+00    1.61538411E-01 
   1.52757996E+00    3.57069513E-01 
P    1    1.000000
   5.29351179E-01    4.47942075E-01 
P    1    1.000000
   1.74784213E-01    2.44460697E-01 
P    1    1.000000
   5.11127457E-02    1.00000000E+00 
D    1    1.000000
   2.31400000E+00    1.00000000E+00 
D    1    1.000000
   6.45000000E-01    1.00000000E+00 
F    1    1.000000
   1.42800000E+00    1.00000000E+00 
****
C    0
S    6    1.000000
   1.35753497E+04    2.22458144E-04 
   2.03523337E+03    1.72327383E-03 
   4.63225624E+02    8.92557153E-03 
   1.31200196E+02    3.57279845E-02 
   4.28530159E+01    1.10762599E-01 
   1.55841858E+01    2.42956276E-01 
S    2    1.000000
   6.20671385E+00    4.14402634E-01 
   2.57648965E+00    2.37449687E-01 
S    1    1.000000
   5.76963394E-01    1.00000000E+00 
S    1    1.000000
   2.29728314E-01    1.00000000E+00 
S    1    1.000000
   9.51644400E-02    1.00000000E+00 
S    1    1.000000
   4.84754014E-02    1.00000000E+00 
P    4    1.000000
   3.46972322E+01    5.33336578E-03 
   7.95826228E+00    3.58641091E-02 
   2.37808269E+00    1.42158733E-01 
   8.14332082E-01    3.42704718E-01 
P    1    1.000000
   2.88875473E-01    4.64458224E-01 
P    1    1.000000
   1.00568237E-01    2.49557899E-01 
D    1    1.000000
   1.09700000E+00    1.00000000E+00 
D    1    1.000000
   3.18000000E-01    1.00000000E+00 
F    1    1.000000
   7.61000000E-01    1.00000000E+00 
****
C    0
S    6    1.000000
   1.35753497E+04    2.22458144E-04 
   2.03523337E+03    1.72327383E-03 
   4.63225624E+02    8.92557153E-03 
   1.31200196E+02    3.57279845E-02 
   4.28530159E+01    1.10762599E-01 
   1.55841858E+01    2.42956276E-01 
S    2    1.000000
   6.20671385E+00    4.14402634E-01 
   2.57648965E+00    2.37449687E-01 
S    1    1.000000
   5.76963394E-01    1.00000000E+00 
S    1    1.000000
   2.29728314E-01    1.00000000E+00 
S    1    1.000000
   9.51644400E-02    1.00000000E+00 
S    1    1.000000
   4.84754014E-02    1.00000000E+00 
P    4    1.000000
   3.46972322E+01    5.33336578E-03 
   7.95826228E+00    3.58641091E-02 
   2.37808269E+00    1.42158733E-01 
   8.14332082E-01    3.42704718E-01 
P    1    1.000000
   2.88875473E-01    4.64458224E-01 
P    1    1.000000
   1.00568237E-01    2.49557899E-01 
D    1    1.000000
   1.09700000E+00    1.00000000E+00 
D    1    1.000000
   3.18000000E-01    1.00000000E+00 
F    1    1.000000
   7.61000000E-01    1.00000000E+00 
****
C    0
S    6    1.000000
   1.35753497E+04    2.22458144E-04 
   2.03523337E+03    1.72327383E-03 
   4.63225624E+02    8.92557153E-03 
   1.31200196E+02    3.57279845E-02 
   4.28530159E+01    1.10762599E-01 
   1.55841858E+01    2.42956276E-01 
S    2    1.000000
   6.20671385E+00    4.14402634E-01 
   2.57648965E+00    2.37449687E-01 
S    1    1.000000
   5.76963394E-01    1.00000000E+00 
S    1    1.000000
   2.29728314E-01    1.00000000E+00 
S    1    1.000000
   9.51644400E-02    1.00000000E+00 
S    1    1.000000
   4.84754014E-02    1.00000000E+00 
P    4    1.000000
   3.46972322E+01    5.33336578E-03 
   7.95826228E+00    3.58641091E-02 
   2.37808269E+00    1.42158733E-01 
   8.14332082E-01    3.42704718E-01 
P    1    1.000000
   2.88875473E-01    4.64458224E-01 
P    1    1.000000
   1.00568237E-01    2.49557899E-01 
D    1    1.000000
   1.09700000E+00    1.00000000E+00 
D    1    1.000000
   3.18000000E-01    1.00000000E+00 
F    1    1.000000
   7.61000000E-01    1.00000000E+00 
****
C    0
S    6    1.000000
   1.35753497E+04    2.22458144E-04 
   2.03523337E+03    1.72327383E-03 
   4.63225624E+02    8.92557153E-03 
   1.31200196E+02    3.57279845E-02 
   4.28530159E+01    1.10762599E-01 
   1.55841858E+01    2.42956276E-01 
S    2    1.000000
   6.20671385E+00    4.14402634E-01 
   2.57648965E+00    2.37449687E-01 
S    1    1.000000
   5.76963394E-01    1.00000000E+00 
S    1    1.000000
   2.29728314E-01    1.00000000E+00 
S    1    1.000000
   9.51644400E-02    1.00000000E+00 
S    1    1.000000
   4.84754014E-02    1.00000000E+00 
P    4    1.000000
   3.46972322E+01    5.33336578E-03 
   7.95826228E+00    3.58641091E-02 
   2.37808269E+00    1.42158733E-01 
   8.14332082E-01    3.42704718E-01 
P    1    1.000000
   2.88875473E-01    4.64458224E-01 
P    1    1.000000
   1.00568237E-01    2.49557899E-01 
D    1    1.000000
   1.09700000E+00    1.00000000E+00 
D    1    1.000000
   3.18000000E-01    1.00000000E+00 
F    1    1.000000
   7.61000000E-01    1.00000000E+00 
****
C    0
S    6    1.000000
   1.35753497E+04    2.22458144E-04 
   2.03523337E+03    1.72327383E-03 
   4.63225624E+02    8.92557153E-03 
   1.31200196E+02    3.57279845E-02 
   4.28530159E+01    1.10762599E-01 
   1.55841858E+01    2.42956276E-01 
S    2    1.000000
   6.20671385E+00    4.14402634E-01 
   2.57648965E+00    2.37449687E-01 
S    1    1.000000
   5.76963394E-01    1.00000000E+00 
S    1    1.000000
   2.29728314E-01    1.00000000E+00 
S    1    1.000000
   9.51644400E-02    1.00000000E+00 
S    1    1.000000
   4.84754014E-02    1.00000000E+00 
P    4    1.000000
   3.46972322E+01    5.33336578E-03 
   7.95826228E+00    3.58641091E-02 
   2.37808269E+00    1.42158733E-01 
   8.14332082E-01    3.42704718E-01 
P    1    1.000000
   2.88875473E-01    4.64458224E-01 
P    1    1.000000
   1.00568237E-01    2.49557899E-01 
D    1    1.000000
   1.09700000E+00    1.00000000E+00 
D    1    1.000000
   3.18000000E-01    1.00000000E+00 
F    1    1.000000
   7.61000000E-01    1.00000000E+00 
****
C    0
S    6    1.000000
   1.35753497E+04    2.22458144E-04 
   2.03523337E+03    1.72327383E-03 
   4.63225624E+02    8.92557153E-03 
   1.31200196E+02    3.57279845E-02 
   4.28530159E+01    1.10762599E-01 
   1.55841858E+01    2.42956276E-01 
S    2    1.000000
   6.20671385E+00    4.14402634E-01 
   2.57648965E+00    2.37449687E-01 
S    1    1.000000
   5.76963394E-01    1.00000000E+00 
S    1    1.000000
   2.29728314E-01    1.00000000E+00 
S    1    1.000000
   9.51644400E-02    1.00000000E+00 
S    1    1.000000
   4.84754014E-02    1.00000000E+00 
P    4    1.000000
   3.46972322E+01    5.33336578E-03 
   7.95826228E+00    3.58641091E-02 
   2.37808269E+00    1.42158733E-01 
   8.14332082E-01    3.42704718E-01 
P    1    1.000000
   2.88875473E-01    4.64458224E-01 
P    1    1.000000
   1.00568237E-01    2.49557899E-01 
D    1    1.000000
   1.09700000E+00    1.00000000E+00 
D    1    1.000000
   3.18000000E-01    1.00000000E+00 
F    1    1.000000
   7.61000000E-01    1.00000000E+00 
****
O    0
S    6    1.000000
   2.70323826E+04    2.17263025E-04 
   4.05238714E+03    1.68386622E-03 
   9.22327227E+02    8.73956163E-03 
   2.61240710E+02    3.52399688E-02 
   8.53546414E+01    1.11535191E-01 
   3.10350352E+01    2.55889540E-01 
S    2    1.000000
   1.22608607E+01    3.97687309E-01 
   4.99870760E+00    2.46278494E-01 
S    1    1.000000
   1.17031082E+00    1.00000000E+00 
S    1    1.000000
   4.64747410E-01    1.00000000E+00 
S    1    1.000000
   1.85045364E-01    1.00000000E+00 
S    1    1.000000
   7.02880263E-02    1.00000000E+00 
P    4    1.000000
   6.32749548E+01    6.06851034E-03 
   1.46270494E+01    4.19125758E-02 
   4.45012235E+00    1.61538411E-01 
   1.52757996E+00    3.57069513E-01 
P    1    1.000000
   5.29351179E-01    4.47942075E-01 
P    1    1.000000
   1.74784213E-01    2.44460697E-01 
P    1    1.000000
   5.11127457E-02    1.00000000E+00 
D    1    1.000000
   2.31400000E+00    1.00000000E+00 
D    1    1.000000
   6.45000000E-01    1.00000000E+00 
F    1    1.000000
   1.42800000E+00    1.00000000E+00 
****
H    0
S    3    1.000000
   3.40613410E+01    6.02519780E-03 
   5.12357460E+00    4.50210940E-02 
   1.16466260E+00    2.01897260E-01 
S    1    1.000000
   3.27230410E-01    1.00000000E+00 
S    1    1.000000
   1.03072410E-01    1.00000000E+00 
P    1    1.000000
   8.00000000E-01    1.00000000E+00 
****
O    0
S    6    1.000000
   2.70323826E+04    2.17263025E-04 
   4.05238714E+03    1.68386622E-03 
   9.22327227E+02    8.73956163E-03 
   2.61240710E+02    3.52399688E-02 
   8.53546414E+01    1.11535191E-01 
   3.10350352E+01    2.55889540E-01 
S    2    1.000000
   1.22608607E+01    3.97687309E-01 
   4.99870760E+00    2.46278494E-01 
S    1    1.000000
   1.17031082E+00    1.00000000E+00 
S    1    1.000000
   4.64747410E-01    1.00000000E+00 
S    1    1.000000
   1.85045364E-01    1.00000000E+00 
S    1    1.000000
   7.02880263E-02    1.00000000E+00 
P    4    1.000000
   6.32749548E+01    6.06851034E-03 
   1.46270494E+01    4.19125758E-02 
   4.45012235E+00    1.61538411E-01 
   1.52757996E+00    3.57069513E-01 
P    1    1.000000
   5.29351179E-01    4.47942075E-01 
P    1    1.000000
   1.74784213E-01    2.44460697E-01 
P    1    1.000000
   5.11127457E-02    1.00000000E+00 
D    1    1.000000
   2.31400000E+00    1.00000000E+00 
D    1    1.000000
   6.45000000E-01    1.00000000E+00 
F    1    1.000000
   1.42800000E+00    1.00000000E+00 
****
H    0
S    3    1.000000
   3.40613410E+01    6.02519780E-03 
   5.12357460E+00    4.50210940E-02 
   1.16466260E+00    2.01897260E-01 
S    1    1.000000
   3.27230410E-01    1.00000000E+00 
S    1    1.000000
   1.03072410E-01    1.00000000E+00 
P    1    1.000000
   8.00000000E-01    1.00000000E+00 
****
H    0
S    3    1.000000
   3.40613410E+01    6.02519780E-03 
   5.12357460E+00    4.50210940E-02 
   1.16466260E+00    2.01897260E-01 
S    1    1.000000
   3.27230410E-01    1.00000000E+00 
S    1    1.000000
   1.03072410E-01    1.00000000E+00 
P    1    1.000000
   8.00000000E-01    1.00000000E+00 
****
O    0
S    6    1.000000
   2.70323826E+04    2.17263025E-04 
   4.05238714E+03    1.68386622E-03 
   9.22327227E+02    8.73956163E-03 
   2.61240710E+02    3.52399688E-02 
   8.53546414E+01    1.11535191E-01 
   3.10350352E+01    2.55889540E-01 
S    2    1.000000
   1.22608607E+01    3.97687309E-01 
   4.99870760E+00    2.46278494E-01 
S    1    1.000000
   1.17031082E+00    1.00000000E+00 
S    1    1.000000
   4.64747410E-01    1.00000000E+00 
S    1    1.000000
   1.85045364E-01    1.00000000E+00 
S    1    1.000000
   7.02880263E-02    1.00000000E+00 
P    4    1.000000
   6.32749548E+01    6.06851034E-03 
   1.46270494E+01    4.19125758E-02 
   4.45012235E+00    1.61538411E-01 
   1.52757996E+00    3.57069513E-01 
P    1    1.000000
   5.29351179E-01    4.47942075E-01 
P    1    1.000000
   1.74784213E-01    2.44460697E-01 
P    1    1.000000
   5.11127457E-02    1.00000000E+00 
D    1    1.000000
   2.31400000E+00    1.00000000E+00 
D    1    1.000000
   6.45000000E-01    1.00000000E+00 
F    1    1.000000
   1.42800000E+00    1.00000000E+00 
****
H    0
S    3    1.000000
   3.40613410E+01    6.02519780E-03 
   5.12357460E+00    4.50210940E-02 
   1.16466260E+00    2.01897260E-01 
S    1    1.000000
   3.27230410E-01    1.00000000E+00 
S    1    1.000000
   1.03072410E-01    1.00000000E+00 
P    1    1.000000
   8.00000000E-01    1.00000000E+00 
****
O    0
S    6    1.000000
   2.70323826E+04    2.17263025E-04 
   4.05238714E+03    1.68386622E-03 
   9.22327227E+02    8.73956163E-03 
   2.61240710E+02    3.52399688E-02 
   8.53546414E+01    1.11535191E-01 
   3.10350352E+01    2.55889540E-01 
S    2    1.000000
   1.22608607E+01    3.97687309E-01 
   4.99870760E+00    2.46278494E-01 
S    1    1.000000
   1.17031082E+00    1.00000000E+00 
S    1    1.000000
   4.64747410E-01    1.00000000E+00 
S    1    1.000000
   1.85045364E-01    1.00000000E+00 
S    1    1.000000
   7.02880263E-02    1.00000000E+00 
P    4    1.000000
   6.32749548E+01    6.06851034E-03 
   1.46270494E+01    4.19125758E-02 
   4.45012235E+00    1.61538411E-01 
   1.52757996E+00    3.57069513E-01 
P    1    1.000000
   5.29351179E-01    4.47942075E-01 
P    1    1.000000
   1.74784213E-01    2.44460697E-01 
P    1    1.000000
   5.11127457E-02    1.00000000E+00 
D    1    1.000000
   2.31400000E+00    1.00000000E+00 
D    1    1.000000
   6.45000000E-01    1.00000000E+00 
F    1    1.000000
   1.42800000E+00    1.00000000E+00 
****
O    0
S    6    1.000000
   2.70323826E+04    2.17263025E-04 
   4.05238714E+03    1.68386622E-03 
   9.22327227E+02    8.73956163E-03 
   2.61240710E+02    3.52399688E-02 
   8.53546414E+01    1.11535191E-01 
   3.10350352E+01    2.55889540E-01 
S    2    1.000000
   1.22608607E+01    3.97687309E-01 
   4.99870760E+00    2.46278494E-01 
S    1    1.000000
   1.17031082E+00    1.00000000E+00 
S    1    1.000000
   4.64747410E-01    1.00000000E+00 
S    1    1.000000
   1.85045364E-01    1.00000000E+00 
S    1    1.000000
   7.02880263E-02    1.00000000E+00 
P    4    1.000000
   6.32749548E+01    6.06851034E-03 
   1.46270494E+01    4.19125758E-02 
   4.45012235E+00    1.61538411E-01 
   1.52757996E+00    3.57069513E-01 
P    1    1.000000
   5.29351179E-01    4.47942075E-01 
P    1    1.000000
   1.74784213E-01    2.44460697E-01 
P    1    1.000000
   5.11127457E-02    1.00000000E+00 
D    1    1.000000
   2.31400000E+00    1.00000000E+00 
D    1    1.000000
   6.45000000E-01    1.00000000E+00 
F    1    1.000000
   1.42800000E+00    1.00000000E+00 
****
O    0
S    6    1.000000
   2.70323826E+04    2.17263025E-04 
   4.05238714E+03    1.68386622E-03 
   9.22327227E+02    8.73956163E-03 
   2.61240710E+02    3.52399688E-02 
   8.53546414E+01    1.11535191E-01 
   3.10350352E+01    2.55889540E-01 
S    2    1.000000
   1.22608607E+01    3.97687309E-01 
   4.99870760E+00    2.46278494E-01 
S    1    1.000000
   1.17031082E+00    1.00000000E+00 
S    1    1.000000
   4.64747410E-01    1.00000000E+00 
S    1    1.000000
   1.85045364E-01    1.00000000E+00 
S    1    1.000000
   7.02880263E-02    1.00000000E+00 
P    4    1.000000
   6.32749548E+01    6.06851034E-03 
   1.46270494E+01    4.19125758E-02 
   4.45012235E+00    1.61538411E-01 
   1.52757996E+00    3.57069513E-01 
P    1    1.000000
   5.29351179E-01    4.47942075E-01 
P    1    1.000000
   1.74784213E-01    2.44460697E-01 
P    1    1.000000
   5.11127457E-02    1.00000000E+00 
D    1    1.000000
   2.31400000E+00    1.00000000E+00 
D    1    1.000000
   6.45000000E-01    1.00000000E+00 
F    1    1.000000
   1.42800000E+00    1.00000000E+00 
****
H    0
S    3    1.000000
   3.40613410E+01    6.02519780E-03 
   5.12357460E+00    4.50210940E-02 
   1.16466260E+00    2.01897260E-01 
S    1    1.000000
   3.27230410E-01    1.00000000E+00 
S    1    1.000000
   1.03072410E-01    1.00000000E+00 
P    1    1.000000
   8.00000000E-01    1.00000000E+00 
****
H    0
S    3    1.000000
   3.40613410E+01    6.02519780E-03 
   5.12357460E+00    4.50210940E-02 
   1.16466260E+00    2.01897260E-01 
S    1    1.000000
   3.27230410E-01    1.00000000E+00 
S    1    1.000000
   1.03072410E-01    1.00000000E+00 
P    1    1.000000
   8.00000000E-01    1.00000000E+00 
****
H    0
S    3    1.000000
   3.40613410E+01    6.02519780E-03 
   5.12357460E+00    4.50210940E-02 
   1.16466260E+00    2.01897260E-01 
S    1    1.000000
   3.27230410E-01    1.00000000E+00 
S    1    1.000000
   1.03072410E-01    1.00000000E+00 
P    1    1.000000
   8.00000000E-01    1.00000000E+00 
****
H    0
S    3    1.000000
   3.40613410E+01    6.02519780E-03 
   5.12357460E+00    4.50210940E-02 
   1.16466260E+00    2.01897260E-01 
S    1    1.000000
   3.27230410E-01    1.00000000E+00 
S    1    1.000000
   1.03072410E-01    1.00000000E+00 
P    1    1.000000
   8.00000000E-01    1.00000000E+00 
****
H    0
S    3    1.000000
   3.40613410E+01    6.02519780E-03 
   5.12357460E+00    4.50210940E-02 
   1.16466260E+00    2.01897260E-01 
S    1    1.000000
   3.27230410E-01    1.00000000E+00 
S    1    1.000000
   1.03072410E-01    1.00000000E+00 
P    1    1.000000
   8.00000000E-01    1.00000000E+00 
****
H    0
S    3    1.000000
   3.40613410E+01    6.02519780E-03 
   5.12357460E+00    4.50210940E-02 
   1.16466260E+00    2.01897260E-01 
S    1    1.000000
   3.27230410E-01    1.00000000E+00 
S    1    1.000000
   1.03072410E-01    1.00000000E+00 
P    1    1.000000
   8.00000000E-01    1.00000000E+00 
****
$end
-----------------------------------------------------------------------
 There are 311 shells and 785 basis functions

 Total QAlloc Memory Limit  64000 MB
 Mega-Array Size      1956 MB
 MEM_STATIC part      2000 MB

 User-specified dielectric constants (eps_0 = 78.39, eps_inf = 1.78)
 Using C-PCM dielectric factor f(eps) = (eps-1)/eps = 0.987243
 Static dielectric constant eps = 78.39
 Discretize the solute cavity surface with Lebedev spheres
	Using 110 Lebedev grid points for each H atom
	Using 194 Lebedev grid points for other atoms
	Atomic van der Waals radii (Bondi set) will be scaled by 1.20
 Using smooth SwiG surface discretization
 Remove points where switching function is < 1.0e-08
 Keep 2211 surface tesserae and discard 3157 interior tesserae
 Molecular Surface Area = 307.019 Angst**2

 A cutoff of  1.0D-12 yielded  34372 shell pairs
 There are    206028 function pairs (    261716 Cartesian)
 Smallest overlap matrix eigenvalue = 4.41E-06

 Scale SEOQF with 1.000000e-02/1.000000e-02/1.000000e-01

 Standard Electronic Orientation quadrupole field applied
 Nucleus-field energy     =    -0.0000000082 hartrees
 Guess from superposition of atomic densities
 Warning:  Energy on first SCF cycle will be non-variational
 SAD guess density has 156.000000 electrons

 -----------------------------------------------------------------------
  General SCF calculation program by
  Eric Jon Sundstrom, Paul Horn, Yuezhi Mao, Dmitri Zuev, Alec White,
  David Stuck, Shaama M.S., Shane Yost, Joonho Lee, David Small,
  Daniel Levine, Susi Lehtola, Hugh Burton, Evgeny Epifanovsky,
  Bang C. Huynh
 -----------------------------------------------------------------------
 Exchange:     0.1900 Hartree-Fock + 0.3500 B88 + 0.4600 muB88 + LR-HF
 Correlation:  0.1900 VWN5 + 0.8100 LYP
 Using SG-1 standard quadrature grid
 using 16 threads for integral computing
 -------------------------------------------------------
 OpenMP Integral computing Module                
 Release: version 1.0, May 2013, Q-Chem Inc. Pittsburgh 
 -------------------------------------------------------
 C-PCM solvent model [f = (eps-1)/eps], solve by matrix inversion
 DFT Correlation          Energy =  -6.39215107333168
 DFT Exchange             Energy = -98.73349793445310
 HF Exchange              Energy = -40.21385969131261
 One-Electron             Energy = -4877.03053670375357
 SCRF wf-dependent energy Energy =   0.00000000000000
 Total Coulomb            Energy = 2209.24354172827407
 Nuclear repulsion Energy = 1702.45716898122305
 A restricted SCF calculation will be
 performed using DIIS
 SCF converges when DIIS error is below 1.0e-08
 DFT Correlation          Energy =  -6.39215107333168
 DFT Exchange             Energy = -98.73349793445310
 HF Exchange              Energy = -40.21385969131261
 One-Electron             Energy = -4877.03053670375357
 SCRF wf-dependent energy Energy =   0.00000000000000
 Total Coulomb            Energy = 2209.24354172827407
 ---------------------------------------
  Cycle       Energy         DIIS error
 ---------------------------------------
 DFT Correlation          Energy =  -6.47691800078304
 DFT Exchange             Energy = -100.82493454123706
 HF Exchange              Energy = -38.94387243585666
 One-Electron             Energy = -4896.18235087826724
 SCRF wf-dependent energy Energy =  -1.50145749759258
 Total Coulomb            Energy = 2237.66020493396400
 Nuclear repulsion Energy = 1702.45716898122305
    1   -1110.6693346934      2.07e-02  
 DFT Correlation          Energy =  -6.41330472328974
 DFT Exchange             Energy = -98.93334440166552
 HF Exchange              Energy = -38.41183832441099
 One-Electron             Energy = -4883.96737907842544
 SCRF wf-dependent energy Energy =   0.78517668536642
 Total Coulomb            Energy = 2220.85022045011419
 Nuclear repulsion Energy = 1702.45716898122305
    2   -1103.8121594385      2.32e-03  
 DFT Correlation          Energy =  -6.44238761448162
 DFT Exchange             Energy = -99.85654248320506
 HF Exchange              Energy = -38.69143905345711
 One-Electron             Energy = -4886.33001626413716
 SCRF wf-dependent energy Energy =  -1.41319105243338
 Total Coulomb            Energy = 2226.14348719847430
 Nuclear repulsion Energy = 1702.45716898122305
    3   -1103.6333004111      3.02e-03  
 DFT Correlation          Energy =  -6.44484063396761
 DFT Exchange             Energy = -99.90409526934049
 HF Exchange              Energy = -38.70317424443894
 One-Electron             Energy = -4888.78925533512302
 SCRF wf-dependent energy Energy =  -0.83691162734294
 Total Coulomb            Energy = 2228.07152017385033
 Nuclear repulsion Energy = 1702.45716898122305
    4   -1104.1329202880      5.54e-04  
 DFT Correlation          Energy =  -6.44437171279650
 DFT Exchange             Energy = -99.88745787277941
 HF Exchange              Energy = -38.69975819103212
 One-Electron             Energy = -4888.67665448841763
 SCRF wf-dependent energy Energy =  -0.84111588957194
 Total Coulomb            Energy = 2227.94043341466022
 Nuclear repulsion Energy = 1702.45716898122305
    5   -1104.1495879551      2.00e-04  
 DFT Correlation          Energy =  -6.44416078158649
 DFT Exchange             Energy = -99.88675563632363
 HF Exchange              Energy = -38.70052535376978
 One-Electron             Energy = -4888.48560626844755
 SCRF wf-dependent energy Energy =  -0.87436472165928
 Total Coulomb            Energy = 2227.78219224216264
 Nuclear repulsion Energy = 1702.45716898122305
    6   -1104.1517557587      6.33e-05  
 DFT Correlation          Energy =  -6.44415169479183
 DFT Exchange             Energy = -99.88591464611616
 HF Exchange              Energy = -38.70061307206919
 One-Electron             Energy = -4888.51212444727480
 SCRF wf-dependent energy Energy =  -0.86166759548155
 Total Coulomb            Energy = 2227.79521059071703
 Nuclear repulsion Energy = 1702.45716898122305
    7   -1104.1520515384      1.68e-05  
 DFT Correlation          Energy =  -6.44421298395437
 DFT Exchange             Energy = -99.88746107382509
 HF Exchange              Energy = -38.70118558401396
 One-Electron             Energy = -4888.54706107620859
 SCRF wf-dependent energy Energy =  -0.85605780744436
 Total Coulomb            Energy = 2227.82670361507098
 Nuclear repulsion Energy = 1702.45716898122305
    8   -1104.1520918838      7.83e-06  
 DFT Correlation          Energy =  -6.44420833716664
 DFT Exchange             Energy = -99.88747395299978
 HF Exchange              Energy = -38.70130227908114
 One-Electron             Energy = -4888.55424289935490
 SCRF wf-dependent energy Energy =  -0.85127704557976
 Total Coulomb            Energy = 2227.82922430280178
 Nuclear repulsion Energy = 1702.45716898122305
    9   -1104.1521059292      3.94e-06  
 DFT Correlation          Energy =  -6.44420257844540
 DFT Exchange             Energy = -99.88726574471073
 HF Exchange              Energy = -38.70126930060997
 One-Electron             Energy = -4888.55285045067558
 SCRF wf-dependent energy Energy =  -0.85055407634150
 Total Coulomb            Energy = 2227.82686116031073
 Nuclear repulsion Energy = 1702.45716898122305
   10   -1104.1521112302      1.80e-06  
 DFT Correlation          Energy =  -6.44420788253265
 DFT Exchange             Energy = -99.88744498182106
 HF Exchange              Energy = -38.70131787883489
 One-Electron             Energy = -4888.55769646072258
 SCRF wf-dependent energy Energy =  -0.84923665830820
 Total Coulomb            Energy = 2227.83062269342008
 Nuclear repulsion Energy = 1702.45716898122305
   11   -1104.1521120093      7.21e-07  
 DFT Correlation          Energy =  -6.44420840411457
 DFT Exchange             Energy = -99.88743143565169
 HF Exchange              Energy = -38.70131434072312
 One-Electron             Energy = -4888.55853380483768
 SCRF wf-dependent energy Energy =  -0.84887838409509
 Total Coulomb            Energy = 2227.83108516694210
 Nuclear repulsion Energy = 1702.45716898122305
   12   -1104.1521121876      4.31e-07  
 DFT Correlation          Energy =  -6.44420814344555
 DFT Exchange             Energy = -99.88743469893311
 HF Exchange              Energy = -38.70131412178086
 One-Electron             Energy = -4888.55851847727990
 SCRF wf-dependent energy Energy =  -0.84881111206687
 Total Coulomb            Energy = 2227.83100534701771
 Nuclear repulsion Energy = 1702.45716898122305
   13   -1104.1521122213      1.44e-07  
 DFT Correlation          Energy =  -6.44420815418969
 DFT Exchange             Energy = -99.88743370717650
 HF Exchange              Energy = -38.70131350334108
 One-Electron             Energy = -4888.55855928655546
 SCRF wf-dependent energy Energy =  -0.84879179221457
 Total Coulomb            Energy = 2227.83102523700518
 Nuclear repulsion Energy = 1702.45716898122305
   14   -1104.1521122253      4.54e-08  
 DFT Correlation          Energy =  -6.44420819081818
 DFT Exchange             Energy = -99.88743438968194
 HF Exchange              Energy = -38.70131362005870
 One-Electron             Energy = -4888.55859744344525
 SCRF wf-dependent energy Energy =  -0.84878176742586
 Total Coulomb            Energy = 2227.83105420503261
 Nuclear repulsion Energy = 1702.45716898122305
   15   -1104.1521122252      1.98e-08  
   16   -1104.1521122252      5.12e-09  Convergence criterion met
 ---------------------------------------
 DFT Correlation          Energy =  -6.44420819081818
 DFT Exchange             Energy = -99.88743438968194
 HF Exchange              Energy = -38.70131362005870
 One-Electron             Energy = -4888.55859744344525
 SCRF wf-dependent energy Energy =  -0.84878176742586
 Total Coulomb            Energy = 2227.83105420503261
 Final Alpha MO Eigenvalues
            1           2           3           4           5           6
    1 -19.2946140 -19.2483317 -19.2462542 -19.2457062 -19.2439486 -19.2384363
            7           8           9          10          11          12
    1 -19.1550065 -10.3571333 -10.3459013 -10.3372560 -10.3369691 -10.3250924
           13          14          15          16          17          18
    1 -10.3238758 -10.3229468 -10.3213724 -10.3001868 -10.2864980 -10.2827194
           19          20          21          22          23          24
    1 -10.2593054 -10.2571648 -10.2462023 -10.2371584  -1.2206756  -1.1752835
           25          26          27          28          29          30
    1  -1.1613819  -1.1598692  -1.1519290  -1.1367548  -1.0783034  -0.9666665
           31          32          33          34          35          36
    1  -0.9536287  -0.9207370  -0.8767938  -0.8423872  -0.8364010  -0.8217927
           37          38          39          40          41          42
    1  -0.7688595  -0.7532211  -0.7272092  -0.7141978  -0.7117648  -0.6594903
           43          44          45          46          47          48
    1  -0.6487668  -0.6428258  -0.6321851  -0.6079218  -0.5990138  -0.5921586
           49          50          51          52          53          54
    1  -0.5797892  -0.5733088  -0.5628691  -0.5500570  -0.5359782  -0.5333574
           55          56          57          58          59          60
    1  -0.5163300  -0.5097020  -0.5050007  -0.4958500  -0.4906265  -0.4879341
           61          62          63          64          65          66
    1  -0.4767795  -0.4749580  -0.4674313  -0.4607994  -0.4535593  -0.4521603
           67          68          69          70          71          72
    1  -0.4501534  -0.4413461  -0.4388064  -0.4217998  -0.4180548  -0.3950601
           73          74          75          76          77          78
    1  -0.3523600  -0.3148693  -0.3068246  -0.2943485  -0.2922474  -0.2501086
           79          80          81          82          83          84
    1  -0.0681856   0.0098566   0.0215549   0.0300206   0.0365675   0.0387387
           85          86          87          88          89          90
    1   0.0445357   0.0469512   0.0493001   0.0601477   0.0646958   0.0665265
           91          92          93          94          95          96
    1   0.0743753   0.0805606   0.0834513   0.0876462   0.0892343   0.0980779
           97          98          99         100         101         102
    1   0.1013748   0.1082558   0.1108060   0.1134704   0.1150597   0.1215051
          103         104         105         106         107         108
    1   0.1274867   0.1333032   0.1382527   0.1432020   0.1448391   0.1488646
          109         110         111         112         113         114
    1   0.1490976   0.1536362   0.1577349   0.1652673   0.1696363   0.1751823
          115         116         117         118         119         120
    1   0.1855929   0.1936810   0.1975030   0.1996333   0.2039887   0.2054314
          121         122         123         124         125         126
    1   0.2129396   0.2205051   0.2225201   0.2283205   0.2310085   0.2340400
          127         128         129         130         131         132
    1   0.2399448   0.2409995   0.2438690   0.2488545   0.2541888   0.2570428
          133         134         135         136         137         138
    1   0.2661258   0.2770447   0.2782734   0.2814696   0.2830909   0.2898807
          139         140         141         142         143         144
    1   0.2949886   0.2995015   0.3043698   0.3088915   0.3162306   0.3179155
          145         146         147         148         149         150
    1   0.3208393   0.3245755   0.3276957   0.3332913   0.3394601   0.3414635
          151         152         153         154         155         156
    1   0.3460347   0.3502969   0.3575560   0.3608526   0.3664704   0.3679307
          157         158         159         160         161         162
    1   0.3737736   0.3799205   0.3841947   0.3857424   0.3886275   0.3965468
          163         164         165         166         167         168
    1   0.3970718   0.4027360   0.4081169   0.4091113   0.4235915   0.4276062
          169         170         171         172         173         174
    1   0.4306635   0.4335811   0.4355784   0.4402446   0.4442327   0.4548136
          175         176         177         178         179         180
    1   0.4572694   0.4588316   0.4644191   0.4677947   0.4775035   0.4793120
          181         182         183         184         185         186
    1   0.4835407   0.4859049   0.4908768   0.4952872   0.5021973   0.5047521
          187         188         189         190         191         192
    1   0.5136218   0.5184385   0.5231926   0.5291028   0.5346174   0.5447815
          193         194         195         196         197         198
    1   0.5475311   0.5550580   0.5605378   0.5621922   0.5655109   0.5685324
          199         200         201         202         203         204
    1   0.5781956   0.5822384   0.5885519   0.5927078   0.5983501   0.6053762
          205         206         207         208         209         210
    1   0.6143077   0.6150988   0.6242210   0.6273884   0.6345494   0.6379401
          211         212         213         214         215         216
    1   0.6407651   0.6432619   0.6462577   0.6527061   0.6592747   0.6622116
          217         218         219         220         221         222
    1   0.6686212   0.6725934   0.6806825   0.6813510   0.6838502   0.6934224
          223         224         225         226         227         228
    1   0.7022607   0.7052768   0.7118860   0.7169731   0.7276486   0.7294092
          229         230         231         232         233         234
    1   0.7365442   0.7381691   0.7428374   0.7516383   0.7590265   0.7677017
          235         236         237         238         239         240
    1   0.7723510   0.7776171   0.7815107   0.7856001   0.7943613   0.7962252
          241         242         243         244         245         246
    1   0.8020711   0.8063222   0.8156194   0.8165057   0.8197482   0.8225743
          247         248         249         250         251         252
    1   0.8287163   0.8376391   0.8384256   0.8406810   0.8479782   0.8559974
          253         254         255         256         257         258
    1   0.8671056   0.8704579   0.8814780   0.8858979   0.8895386   0.8989224
          259         260         261         262         263         264
    1   0.9124856   0.9171920   0.9195985   0.9290359   0.9350701   0.9422143
          265         266         267         268         269         270
    1   0.9502236   0.9606972   0.9768968   0.9891037   0.9953986   0.9983096
          271         272         273         274         275         276
    1   1.0112449   1.0298595   1.0376764   1.0445487   1.0622146   1.0716265
          277         278         279         280         281         282
    1   1.0738554   1.0833815   1.0889604   1.0960004   1.1038738   1.1150186
          283         284         285         286         287         288
    1   1.1249482   1.1286290   1.1402753   1.1477671   1.1551279   1.1647425
          289         290         291         292         293         294
    1   1.1699126   1.1800365   1.1826832   1.1926425   1.1933766   1.2032469
          295         296         297         298         299         300
    1   1.2155104   1.2301581   1.2320109   1.2416364   1.2550537   1.2618107
          301         302         303         304         305         306
    1   1.2698296   1.2903407   1.2989281   1.3054581   1.3261230   1.3399762
          307         308         309         310         311         312
    1   1.3443696   1.3517272   1.3546838   1.3671755   1.3726132   1.3813487
          313         314         315         316         317         318
    1   1.3958592   1.3982906   1.4164047   1.4315028   1.4373372   1.4435965
          319         320         321         322         323         324
    1   1.4527822   1.4644944   1.4700829   1.4774512   1.4837238   1.4917371
          325         326         327         328         329         330
    1   1.5023455   1.5143439   1.5203138   1.5227480   1.5365655   1.5454145
          331         332         333         334         335         336
    1   1.5552785   1.5648858   1.5681376   1.5763435   1.5864151   1.5979532
          337         338         339         340         341         342
    1   1.6143421   1.6192978   1.6201070   1.6354246   1.6432431   1.6579527
          343         344         345         346         347         348
    1   1.6626070   1.6774679   1.6974759   1.6992365   1.7052101   1.7122433
          349         350         351         352         353         354
    1   1.7217304   1.7344340   1.7363016   1.7402309   1.7429841   1.7518074
          355         356         357         358         359         360
    1   1.7652677   1.7754317   1.7770896   1.7864548   1.7934214   1.8025834
          361         362         363         364         365         366
    1   1.8181947   1.8247609   1.8353365   1.8454239   1.8534344   1.8674562
          367         368         369         370         371         372
    1   1.8826938   1.8850788   1.9096538   1.9208577   1.9321038   1.9412987
          373         374         375         376         377         378
    1   1.9498597   1.9541187   1.9628708   1.9684675   1.9797150   1.9826688
          379         380         381         382         383         384
    1   1.9887226   1.9964808   2.0080183   2.0199702   2.0289274   2.0381753
          385         386         387         388         389         390
    1   2.0458629   2.0539317   2.0623865   2.0723405   2.0802646   2.0914299
          391         392         393         394         395         396
    1   2.0958687   2.0975224   2.1050654   2.1263245   2.1409829   2.1459024
          397         398         399         400         401         402
    1   2.1495641   2.1645669   2.1691366   2.1721026   2.1873404   2.1910415
          403         404         405         406         407         408
    1   2.2001938   2.2054553   2.2094440   2.2183726   2.2250470   2.2291418
          409         410         411         412         413         414
    1   2.2376821   2.2456708   2.2665006   2.2735654   2.2801616   2.2884575
          415         416         417         418         419         420
    1   2.2950112   2.3085400   2.3135813   2.3329760   2.3425056   2.3534275
          421         422         423         424         425         426
    1   2.3605230   2.3674893   2.3737838   2.3881382   2.3910930   2.4112195
          427         428         429         430         431         432
    1   2.4203140   2.4326243   2.4350106   2.4528691   2.4681040   2.4800388
          433         434         435         436         437         438
    1   2.4966450   2.5110330   2.5371260   2.5477060   2.5519860   2.5597627
          439         440         441         442         443         444
    1   2.5620966   2.5800218   2.5819084   2.6000209   2.6029453   2.6274404
          445         446         447         448         449         450
    1   2.6412093   2.6496889   2.6588574   2.6770915   2.6864255   2.6923033
          451         452         453         454         455         456
    1   2.6968082   2.7005018   2.7086670   2.7105687   2.7208173   2.7254204
          457         458         459         460         461         462
    1   2.7332542   2.7517535   2.7557813   2.7645705   2.7776502   2.7876538
          463         464         465         466         467         468
    1   2.7936124   2.8034876   2.8137161   2.8232422   2.8317267   2.8408517
          469         470         471         472         473         474
    1   2.8495680   2.8612293   2.8686519   2.8747522   2.8770020   2.8825179
          475         476         477         478         479         480
    1   2.8987241   2.9010531   2.9102630   2.9168773   2.9275642   2.9363717
          481         482         483         484         485         486
    1   2.9416831   2.9434380   2.9485636   2.9634620   2.9713056   2.9737310
          487         488         489         490         491         492
    1   2.9818539   2.9938797   3.0038039   3.0049848   3.0117227   3.0163847
          493         494         495         496         497         498
    1   3.0244054   3.0302691   3.0402622   3.0512860   3.0639554   3.0688645
          499         500         501         502         503         504
    1   3.0820219   3.0854425   3.0904390   3.0973433   3.1078040   3.1235162
          505         506         507         508         509         510
    1   3.1317350   3.1391672   3.1479696   3.1608841   3.1667485   3.1695088
          511         512         513         514         515         516
    1   3.1828832   3.1877316   3.1949971   3.2032362   3.2130128   3.2154404
          517         518         519         520         521         522
    1   3.2218267   3.2258313   3.2350337   3.2415430   3.2448611   3.2519838
          523         524         525         526         527         528
    1   3.2639498   3.2649705   3.2675672   3.2778579   3.2838206   3.2918790
          529         530         531         532         533         534
    1   3.3033028   3.3089532   3.3117437   3.3214808   3.3257331   3.3376491
          535         536         537         538         539         540
    1   3.3476132   3.3522555   3.3548961   3.3608991   3.3617572   3.3747588
          541         542         543         544         545         546
    1   3.3802558   3.3965383   3.4044856   3.4112816   3.4285735   3.4399286
          547         548         549         550         551         552
    1   3.4469603   3.4495340   3.4568296   3.4604634   3.4730261   3.4757307
          553         554         555         556         557         558
    1   3.4830802   3.4907499   3.4915850   3.5040574   3.5095016   3.5155133
          559         560         561         562         563         564
    1   3.5192362   3.5200781   3.5409984   3.5431400   3.5486995   3.5597239
          565         566         567         568         569         570
    1   3.5616018   3.5723369   3.5820342   3.5917825   3.6049451   3.6069658
          571         572         573         574         575         576
    1   3.6322424   3.6337356   3.6485150   3.6549440   3.6709521   3.6819859
          577         578         579         580         581         582
    1   3.6875927   3.6994437   3.7092194   3.7196478   3.7374646   3.7505766
          583         584         585         586         587         588
    1   3.7606630   3.7711807   3.7955931   3.8061023   3.8173433   3.8416062
          589         590         591         592         593         594
    1   3.8480379   3.8589102   3.8668261   3.8817991   3.9076968   3.9246342
          595         596         597         598         599         600
    1   3.9437954   3.9475902   3.9740384   3.9939274   4.0009078   4.0219158
          601         602         603         604         605         606
    1   4.0386469   4.0428443   4.0552933   4.0610981   4.0647774   4.0785722
          607         608         609         610         611         612
    1   4.1056100   4.1111306   4.1330700   4.1693418   4.1757419   4.1859426
          613         614         615         616         617         618
    1   4.1937553   4.2040038   4.2229456   4.2311274   4.2346510   4.2397989
          619         620         621         622         623         624
    1   4.2787911   4.2800512   4.2899484   4.2942378   4.2987003   4.3025751
          625         626         627         628         629         630
    1   4.3197486   4.3297274   4.3650340   4.3771133   4.3893748   4.4071070
          631         632         633         634         635         636
    1   4.4377387   4.4522239   4.4611139   4.4923379   4.4989154   4.5099805
          637         638         639         640         641         642
    1   4.5360726   4.5474330   4.5727997   4.5850871   4.6000869   4.6181240
          643         644         645         646         647         648
    1   4.6456811   4.6578043   4.6630461   4.6728601   4.6755754   4.7118806
          649         650         651         652         653         654
    1   4.7550356   4.7969595   4.8166218   4.8223840   4.8516467   4.8682155
          655         656         657         658         659         660
    1   4.9098763   4.9316715   4.9389184   4.9472652   4.9632815   4.9972449
          661         662         663         664         665         666
    1   5.0105223   5.0382360   5.0784450   5.0925642   5.1215958   5.1324565
          667         668         669         670         671         672
    1   5.1593825   5.1867829   5.2075676   5.2609979   5.2683324   5.2951578
          673         674         675         676         677         678
    1   5.3055812   5.3105882   5.3172752   5.3276060   5.3410255   5.3550335
          679         680         681         682         683         684
    1   5.3701310   5.3777765   5.4058132   5.4279390   5.4467668   5.4984710
          685         686         687         688         689         690
    1   5.5038409   5.5175677   5.5220166   5.5275886   5.5351838   5.5368661
          691         692         693         694         695         696
    1   5.5773720   5.5870360   5.6053617   5.6155836   5.6311138   5.6506635
          697         698         699         700         701         702
    1   5.6628645   5.6934144   5.7122248   5.7932014   5.8078612   5.8279847
          703         704         705         706         707         708
    1   5.8315322   5.8496733   5.8703030   5.8999393   6.0057580   6.0173767
          709         710         711         712         713         714
    1   6.0518804   6.0642171   6.0777138   6.1099069   6.1162714   6.2063668
          715         716         717         718         719         720
    1   6.2647304   6.2890325   6.3103086   6.3981608   6.4083800   6.4382743
          721         722         723         724         725         726
    1   6.4441081   6.4547103   6.4657765   6.4712502   6.4748117   6.4758753
          727         728         729         730         731         732
    1   6.4983013   6.5034019   6.5137356   6.5151649   6.6104147   6.6705093
          733         734         735         736         737         738
    1   6.7080789   6.7118101   6.7169214   6.7428506   6.7778128   6.7817719
          739         740         741         742         743         744
    1   6.7892022   6.8554414   6.8823651   6.9078329   6.9144692   6.9208017
          745         746         747         748         749         750
    1   6.9317394   6.9465586   6.9577598   6.9709900   7.0238846   7.0442018
          751         752         753         754         755         756
    1   7.1005789   7.1266266   7.1548471   7.1692536   7.2091562   7.2346288
          757         758         759         760         761         762
    1   7.2987351   7.3996945   7.4090593   7.4167831   7.4964161   7.5318692
          763         764         765         766         767         768
    1   7.5605497  22.4489381  22.5855288  22.7947794  22.8622490  22.8798121
          769         770         771         772         773         774
    1  22.9036830  22.9965870  23.0089364  23.0626731  23.0752289  23.1553075
          775         776         777         778         779         780
    1  23.2043725  23.3678126  23.5934161  23.7003894  43.9823234  44.1117656
          781         782         783         784         785
    1  44.1465815  44.1591929  44.1673424  44.2914164  44.6607297
 SCF time:   CPU 5327.00s  wall 487.00s 
 DFT Correlation          Energy =  -6.44420819081818
 DFT Exchange             Energy = -99.88743438968194
 HF Exchange              Energy = -38.70131362005870
 One-Electron             Energy = -4888.55859744344525
 SCRF wf-dependent energy Energy =  -0.84878176742586
 Total Coulomb            Energy = 2227.83105420503261
 Nuclear repulsion Energy = 1702.45716898122305

************** Final PCM Free Energy Summary **************
 G_electrostatic  =      -0.05822567 hartree =     -36.53716127 kcal/mol
 G_cavitation     =       0.00000000 hartree =       0.00000000 kcal/mol
 G_dispersion     =       0.00000000 hartree =       0.00000000 kcal/mol
 G_repulsion      =       0.00000000 hartree =       0.00000000 kcal/mol
 --------------------------------------------------
 Non-electrostatic Free Energy =       0.00000000 hartree =       0.00000000 kcal/mol
 Total                         =      -0.05822567 hartree =     -36.53716127 kcal/mol
 --------------------------------------------------
 SCF Energy (H0 + V/2)                       =   -1104.15211223 
 Solute Internal Energy (H0)                 =   -1104.09388655 
 Total Free Energy (H0 + V/2 + non-elec)     =   -1104.15211223 hartree
                                             = -692865.91122803 kcal/mol
***********************************************************

 SCF   energy = -1104.15211223
 Total energy = -1104.15211223
 MAX_CIS_SUBSPACE fits in available memory
 Direct TDDFT/TDA calculation will be performed
 Exchange:     0.1900 Hartree-Fock + 0.3500 B88 + 0.4600 muB88 + LR-HF
 Correlation:  0.1900 VWN5 + 0.8100 LYP
 Using SG-1 standard quadrature grid
 Triplet excitation energies requested
 Singlet excitation energies requested
 Adding PCM contribution to the XC response (LR-PCM)
 Optical dielectric constant (eps_inf) =  1.78
 CIS energy converged when residual is below 10e- 6
 ---------------------------------------------------
 Iter    Rts Conv    Rts Left    Ttl Dev     Max Dev
 ---------------------------------------------------
   1         0           7      0.000926    0.000148
   2         0           7      0.000368    0.000065
   3         0           7      0.000188    0.000059
   4         0           7      0.000186    0.000111
   5         1           6      0.000113    0.000072
   6         3           4      0.000084    0.000060
   7         4           3      0.000050    0.000038
   8         5           2      0.000017    0.000012
   9         6           1      0.000009    0.000006
  10         6           1      0.000004    0.000002
  11         7           0      0.000002    0.000001    Roots Converged
 ---------------------------------------------------
 Triplets done: starting singlet calculation
 ---------------------------------------------------
 Iter    Rts Conv    Rts Left    Ttl Dev     Max Dev
 ---------------------------------------------------
  12         0           7      0.002019    0.000522
  13         0           7      0.000569    0.000123
  14         0           7      0.000306    0.000073
  15         0           7      0.000172    0.000046
  16         0           7      0.000093    0.000032
  17         1           6      0.000062    0.000031
  18         3           4      0.000031    0.000017
  19         5           2      0.000020    0.000012
  20         5           2      0.000012    0.000007
  21         5           2      0.000008    0.000004
  22         6           1      0.000005    0.000002
  23         6           1      0.000004    0.000001
  24         7           0      0.000003    0.000001    Roots Converged
 ---------------------------------------------------
 
 ---------------------------------------------------
         TDDFT/TDA Excitation Energies              
 ---------------------------------------------------

 Excited state   1: excitation energy (eV) =       1.6096
 Total energy for state   1:                 -1104.09296072 au
    Multiplicity: Triplet
    Trans. Mom.:  0.0000 X   0.0000 Y   0.0000 Z
    Strength   :     0.0000000000
    D(   73) --> V(    1) amplitude =  0.1070
    D(   77) --> V(    1) amplitude =  0.1446
    D(   77) --> V(    2) amplitude =  0.0843
    D(   78) --> V(    1) amplitude =  0.9607

 Excited state   2: excitation energy (eV) =       2.7886
 Total energy for state   2:                 -1104.04963414 au
    Multiplicity: Singlet
    Trans. Mom.:  2.8222 X   1.7917 Y  -0.5214 Z
    Strength   :     0.7820319435
    D(   75) --> V(    1) amplitude =  0.1490
    D(   77) --> V(    1) amplitude =  0.1531
    D(   78) --> V(    1) amplitude =  0.9579

 Excited state   3: excitation energy (eV) =       2.9525
 Total energy for state   3:                 -1104.04361154 au
    Multiplicity: Triplet
    Trans. Mom.:  0.0000 X   0.0000 Y   0.0000 Z
    Strength   :     0.0000000000
    D(   72) --> V(    1) amplitude =  0.0855
    D(   73) --> V(    1) amplitude = -0.1134
    D(   75) --> V(    1) amplitude =  0.4111
    D(   75) --> V(    2) amplitude =  0.1250
    D(   75) --> V(    7) amplitude =  0.1534
    D(   76) --> V(    1) amplitude =  0.0905
    D(   77) --> V(    1) amplitude =  0.7520
    D(   77) --> V(    7) amplitude = -0.0824
    D(   78) --> V(    1) amplitude = -0.0777
    D(   78) --> V(    2) amplitude =  0.3687

 Excited state   4: excitation energy (eV) =       3.1328
 Total energy for state   4:                 -1104.03698311 au
    Multiplicity: Triplet
    Trans. Mom.:  0.0000 X   0.0000 Y   0.0000 Z
    Strength   :     0.0000000000
    D(   71) --> V(    1) amplitude =  0.0801
    D(   73) --> V(    1) amplitude =  0.2069
    D(   75) --> V(    1) amplitude =  0.7807
    D(   75) --> V(    7) amplitude =  0.1608
    D(   75) --> V(   11) amplitude =  0.0714
    D(   77) --> V(    1) amplitude = -0.2068
    D(   77) --> V(    2) amplitude =  0.0834
    D(   77) --> V(    7) amplitude =  0.1528
    D(   78) --> V(    2) amplitude = -0.4023

 Excited state   5: excitation energy (eV) =       3.4324
 Total energy for state   5:                 -1104.02597431 au
    Multiplicity: Triplet
    Trans. Mom.:  0.0000 X   0.0000 Y   0.0000 Z
    Strength   :     0.0000000000
    D(   76) --> V(    1) amplitude =  0.8858
    D(   76) --> V(    2) amplitude = -0.3417
    D(   76) --> V(    5) amplitude = -0.0872
    D(   76) --> V(    7) amplitude = -0.1598
    D(   76) --> V(   11) amplitude =  0.0997
    D(   77) --> V(    1) amplitude = -0.1425

 Excited state   6: excitation energy (eV) =       3.7229
 Total energy for state   6:                 -1104.01529875 au
    Multiplicity: Triplet
    Trans. Mom.:  0.0000 X   0.0000 Y   0.0000 Z
    Strength   :     0.0000000000
    D(   71) --> V(    1) amplitude =  0.1266
    D(   73) --> V(    1) amplitude = -0.3083
    D(   73) --> V(    7) amplitude =  0.0758
    D(   74) --> V(    1) amplitude = -0.1808
    D(   74) --> V(    2) amplitude = -0.0773
    D(   75) --> V(    1) amplitude =  0.1809
    D(   76) --> V(    1) amplitude = -0.0858
    D(   76) --> V(    2) amplitude =  0.0862
    D(   77) --> V(    1) amplitude = -0.3780
    D(   77) --> V(    2) amplitude =  0.3799
    D(   78) --> V(    1) amplitude =  0.0708
    D(   78) --> V(    2) amplitude =  0.5436
    D(   78) --> V(    7) amplitude = -0.2895
    D(   78) --> V(   11) amplitude =  0.1726
    D(   78) --> V(   12) amplitude =  0.0926
    D(   78) --> V(   13) amplitude =  0.0778
    D(   78) --> V(   17) amplitude =  0.0934

 Excited state   7: excitation energy (eV) =       3.7491
 Total energy for state   7:                 -1104.01433581 au
    Multiplicity: Singlet
    Trans. Mom.: -1.3712 X  -0.9176 Y   0.2092 Z
    Strength   :     0.2540496940
    D(   73) --> V(    1) amplitude = -0.1621
    D(   75) --> V(    1) amplitude =  0.5178
    D(   75) --> V(    2) amplitude =  0.1106
    D(   77) --> V(    1) amplitude =  0.7877
    D(   78) --> V(    1) amplitude = -0.1995
    D(   78) --> V(    2) amplitude =  0.1066

 Excited state   8: excitation energy (eV) =       3.7492
 Total energy for state   8:                 -1104.01433284 au
    Multiplicity: Triplet
    Trans. Mom.:  0.0000 X   0.0000 Y   0.0000 Z
    Strength   :     0.0000000000
    D(   74) --> V(    1) amplitude =  0.8661
    D(   74) --> V(    2) amplitude =  0.3380
    D(   74) --> V(   11) amplitude =  0.1980
    D(   74) --> V(   12) amplitude =  0.1166
    D(   74) --> V(   30) amplitude = -0.1056
    D(   77) --> V(    1) amplitude = -0.0728
    D(   77) --> V(    2) amplitude =  0.0926
    D(   78) --> V(    2) amplitude =  0.1106

 Excited state   9: excitation energy (eV) =       4.0081
 Total energy for state   9:                 -1104.00481888 au
    Multiplicity: Singlet
    Trans. Mom.:  0.0225 X   0.0007 Y  -0.0034 Z
    Strength   :     0.0000506786
    D(   74) --> V(    1) amplitude =  0.9143
    D(   74) --> V(    2) amplitude =  0.3063
    D(   74) --> V(   11) amplitude =  0.1715
    D(   74) --> V(   12) amplitude =  0.1010
    D(   74) --> V(   30) amplitude = -0.0852

 Excited state  10: excitation energy (eV) =       4.0166
 Total energy for state  10:                 -1104.00450491 au
    Multiplicity: Singlet
    Trans. Mom.: -0.3888 X   0.0279 Y   0.3831 Z
    Strength   :     0.0293991953
    D(   75) --> V(    1) amplitude =  0.0863
    D(   76) --> V(    1) amplitude =  0.9384
    D(   76) --> V(    2) amplitude = -0.1572
    D(   76) --> V(    7) amplitude = -0.0739
    D(   77) --> V(    1) amplitude = -0.1161
    D(   77) --> V(    5) amplitude = -0.1221
    D(   78) --> V(    5) amplitude =  0.1479

 Excited state  11: excitation energy (eV) =       4.0881
 Total energy for state  11:                 -1104.00187671 au
    Multiplicity: Triplet
    Trans. Mom.:  0.0000 X   0.0000 Y   0.0000 Z
    Strength   :     0.0000000000
    D(   59) --> V(    1) amplitude = -0.0839
    D(   72) --> V(    1) amplitude =  0.1897
    D(   73) --> V(    1) amplitude =  0.6369
    D(   73) --> V(    2) amplitude =  0.1372
    D(   75) --> V(    7) amplitude =  0.0726
    D(   76) --> V(    5) amplitude =  0.2416
    D(   76) --> V(    7) amplitude = -0.0922
    D(   77) --> V(    1) amplitude = -0.2603
    D(   77) --> V(    2) amplitude = -0.2342
    D(   77) --> V(    7) amplitude = -0.0871
    D(   77) --> V(   11) amplitude =  0.0840
    D(   78) --> V(    2) amplitude =  0.4621
    D(   78) --> V(   11) amplitude = -0.1318

 Excited state  12: excitation energy (eV) =       4.3326
 Total energy for state  12:                 -1103.99289116 au
    Multiplicity: Singlet
    Trans. Mom.:  0.1264 X   0.6931 Y   0.3170 Z
    Strength   :     0.0633641554
    D(   73) --> V(    1) amplitude =  0.0795
    D(   75) --> V(    1) amplitude =  0.7001
    D(   75) --> V(    2) amplitude =  0.0897
    D(   76) --> V(    1) amplitude = -0.1281
    D(   77) --> V(    1) amplitude = -0.5107
    D(   77) --> V(    2) amplitude =  0.1866
    D(   78) --> V(    2) amplitude =  0.3542
    D(   78) --> V(    7) amplitude = -0.1371

 Excited state  13: excitation energy (eV) =       4.9582
 Total energy for state  13:                 -1103.96990279 au
    Multiplicity: Singlet
    Trans. Mom.:  0.8935 X  -1.0732 Y  -1.0022 Z
    Strength   :     0.3589091321
    D(   72) --> V(    1) amplitude =  0.0852
    D(   73) --> V(    1) amplitude =  0.2931
    D(   75) --> V(    1) amplitude = -0.3380
    D(   75) --> V(    7) amplitude =  0.1475
    D(   76) --> V(    5) amplitude =  0.1181
    D(   77) --> V(    1) amplitude =  0.1554
    D(   78) --> V(    2) amplitude =  0.7767
    D(   78) --> V(    5) amplitude = -0.1101
    D(   78) --> V(    7) amplitude = -0.2333

 Excited state  14: excitation energy (eV) =       5.2396
 Total energy for state  14:                 -1103.95956192 au
    Multiplicity: Singlet
    Trans. Mom.:  0.0939 X  -0.0572 Y  -0.0618 Z
    Strength   :     0.0020420024
    D(   75) --> V(    3) amplitude =  0.0893
    D(   76) --> V(    1) amplitude = -0.0744
    D(   76) --> V(    2) amplitude = -0.0934
    D(   77) --> V(    3) amplitude = -0.1759
    D(   77) --> V(    4) amplitude =  0.1505
    D(   78) --> V(    3) amplitude =  0.6593
    D(   78) --> V(    4) amplitude =  0.5215
    D(   78) --> V(    5) amplitude =  0.2248
    D(   78) --> V(    8) amplitude = -0.2122
    D(   78) --> V(    9) amplitude = -0.0838
    D(   78) --> V(   10) amplitude =  0.0968
    D(   78) --> V(   11) amplitude = -0.0985
    D(   78) --> V(   12) amplitude =  0.1647
 
 ---------------------------------------------------

[...]
      XZZZ     935.0736   YZZZ    -663.6471   ZZZZ   -1343.4328
    5th-Order Moments (Debye-Ang^4)
       500   47179.2735    410  -14884.1305    320   -1564.9375
       230   -9528.0704    140   -7935.2169    050  -61270.1527
       401  -14938.3566    311    2315.7509    221   -2394.9175
       131     995.2812    041   -4741.8531    302    8073.4038
       212   -2746.6840    122   -1289.5611    032   -8355.2076
       203   -5194.1616    113     965.2990    023   -3151.7388
       104    2891.1397    014   -3624.9047    005   -3236.4510
 -----------------------------------------------------------------
 -----------------------------------------------------------------
                 RPA Excited-State Multipoles, State    4   
                  LMN = < X^L Y^M Z^N >
 -----------------------------------------------------------------
    Charge (ESU x 10^10)
                 0.0000
    Dipole Moment (Debye)
         X       8.6288      Y      -5.6320      Z      -8.9830
       Tot      13.6701
    Quadrupole Moments (Debye-Ang)
        XX    -152.7012     XY      46.6488     YY    -116.3579
        XZ      21.9770     YZ     -15.4422     ZZ    -135.4289
    Octopole Moments (Debye-Ang^2)
       XXX     639.6820    XXY    -408.2977    XYY     198.2561
       YYY    -835.9104    XXZ    -267.4744    XYZ      30.7052
       YYZ     -94.6778    XZZ     216.4505    YZZ    -314.2279
       ZZZ    -236.6450
    Hexadecapole Moments (Debye-Ang^3)
      XXXX   -8180.5445   XXXY     151.6584   XXYY   -2057.2846
      XYYY    -361.8671   YYYY   -7656.6780   XXXZ    1821.0219
      XXYZ    -538.4520   XYYZ     266.1544   YYYZ    -599.5255
      XXZZ   -1767.6599   XYZZ    -186.9225   YYZZ   -1607.9514
      XZZZ     912.6552   YZZZ    -666.6546   ZZZZ   -1335.0794
    5th-Order Moments (Debye-Ang^4)
       500   43994.2977    410  -14759.5236    320   -1665.4598
       230   -9784.3573    140   -8244.2385    050  -62141.1055
       401  -13926.0066    311    2220.1296    221   -2401.1203
       131    1011.4243    041   -4779.2090    302    7657.4076
       212   -2716.9075    122   -1292.9306    032   -8383.9080
       203   -5023.4223    113     956.5688    023   -3158.4431
       104    2817.6314    014   -3626.8988    005   -3210.9915
 -----------------------------------------------------------------
 -----------------------------------------------------------------
                 RPA Excited-State Multipoles, State    5   
                  LMN = < X^L Y^M Z^N >
 -----------------------------------------------------------------
    Charge (ESU x 10^10)
                 0.0000
    Dipole Moment (Debye)
         X      19.9281      Y       4.0046      Z      -9.6113
       Tot      22.4843
    Quadrupole Moments (Debye-Ang)
        XX    -183.5228     XY      58.8904     YY     -74.4559
        XZ      29.3631     YZ      -9.9021     ZZ    -133.3422
    Octopole Moments (Debye-Ang^2)
       XXX     837.7793    XXY    -391.4533    XYY     250.6117
       YYY    -631.4002    XXZ    -321.1185    XYZ      30.4362
       YYZ     -58.1654    XZZ     245.0006    YZZ    -284.6415
       ZZZ    -237.4602
    Hexadecapole Moments (Debye-Ang^3)
      XXXX   -9062.3646   XXXY     238.9610   XXYY   -2045.8618
      XYYY    -222.5663   YYYY   -6699.5983   XXXZ    2036.5490
      XXYZ    -600.9574   XYYZ     265.2415   YYYZ    -364.2697
      XXZZ   -1852.8900   XYZZ    -130.7492   YYZZ   -1448.2512
      XZZZ     961.7345   YZZZ    -631.2224   ZZZZ   -1330.3276
    5th-Order Moments (Debye-Ang^4)
       500   49037.9389    410  -14935.9378    320   -1353.2638
       230   -9750.2399    140   -7876.7044    050  -57486.0011
       401  -15384.3223    311    2257.6358    221   -2615.3585
       131    1023.3133    041   -3316.6756    302    8262.2651
       212   -2709.3393    122   -1043.0067    032   -7497.6542
       203   -5275.1714    113    1022.7326    023   -2926.0930
       104    2977.5936    014   -3497.6778    005   -3223.9747
 -----------------------------------------------------------------
 -----------------------------------------------------------------
                 RPA Excited-State Multipoles, State    6   
                  LMN = < X^L Y^M Z^N >
 -----------------------------------------------------------------
    Charge (ESU x 10^10)
                 0.0000
    Dipole Moment (Debye)
         X      12.8261      Y      -2.0700      Z      -9.2568
       Tot      15.9525
    Quadrupole Moments (Debye-Ang)
        XX    -170.4077     XY      43.4146     YY    -106.9820
        XZ      24.0988     YZ     -13.0789     ZZ    -134.8984
    Octopole Moments (Debye-Ang^2)
       XXX     737.9982    XXY    -378.8006    XYY     210.0403
       YYY    -788.5241    XXZ    -278.0361    XYZ      24.8531
       YYZ     -88.6391    XZZ     219.0396    YZZ    -308.1087
       ZZZ    -235.9415
    Hexadecapole Moments (Debye-Ang^3)
      XXXX   -8629.1626   XXXY      81.5662   XXYY   -2015.6295
      XYYY    -305.0239   YYYY   -7426.1040   XXXZ    1872.8207
      XXYZ    -512.9398   XYYZ     264.0166   YYYZ    -567.8855
      XXZZ   -1777.9120   XYZZ    -195.5319   YYZZ   -1590.3624
      XZZZ     913.8327   YZZZ    -657.0200   ZZZZ   -1330.4177
    5th-Order Moments (Debye-Ang^4)
       500   46314.6365    410  -14302.3496    320   -1545.8199
       230   -9490.6494    140   -7807.2006    050  -60819.5763
       401  -14190.7042    311    2114.9527    221   -2376.1983
       131    1022.1955    041   -4601.6321    302    7731.2637
       212   -2658.4026    122   -1280.7448    032   -8293.7815
       203   -5034.7009    113     935.8104    023   -3131.8587
       104    2818.0593    014   -3601.4792    005   -3203.4984
 -----------------------------------------------------------------
 -----------------------------------------------------------------
                 RPA Excited-State Multipoles, State    7   
                  LMN = < X^L Y^M Z^N >
 -----------------------------------------------------------------
    Charge (ESU x 10^10)
                 0.0000
    Dipole Moment (Debye)
         X       9.3793      Y      -3.2863      Z      -8.1387
       Tot      12.8456
    Quadrupole Moments (Debye-Ang)
        XX    -154.2185     XY      51.0730     YY    -103.6999
        XZ      23.9354     YZ     -13.9172     ZZ    -136.8768
    Octopole Moments (Debye-Ang^2)
       XXX     694.5538    XXY    -405.1949    XYY     214.3630
       YYY    -778.1693    XXZ    -292.9600    XYZ      31.7450
       YYZ     -90.3085    XZZ     228.9455    YZZ    -313.2166
       ZZZ    -239.3763
    Hexadecapole Moments (Debye-Ang^3)
      XXXX   -8551.5768   XXXY     275.2753   XXYY   -1976.8132
      XYYY    -244.8680   YYYY   -7354.6307   XXXZ    2011.7614
      XXYZ    -565.5406   XYYZ     264.6534   YYYZ    -585.1615
      XXZZ   -1850.9784   XYZZ    -173.1124   YYZZ   -1599.9973
      XZZZ     947.1327   YZZZ    -668.7759   ZZZZ   -1352.1326
    5th-Order Moments (Debye-Ang^4)
       500   46820.7204    410  -15295.4125    320   -1452.6028
       230   -9401.4517    140   -7571.0525    050  -60523.8333
       401  -15198.3930    311    2449.1228    221   -2420.4258
       131    1009.6600    041   -4726.6098    302    8222.0650
       212   -2803.4996    122   -1272.8324    032   -8351.8764
       203   -5274.0979    113     989.3315    023   -3160.0872
       104    2937.2406    014   -3637.2908    005   -3258.0422
 -----------------------------------------------------------------
 -----------------------------------------------------------------
                 RPA Excited-State Multipoles, State    8   
                  LMN = < X^L Y^M Z^N >
 -----------------------------------------------------------------
    Charge (ESU x 10^10)
                 0.0000
    Dipole Moment (Debye)
         X      -0.0245      Y      -3.5013      Z      -3.2647
       Tot       4.7872
    Quadrupole Moments (Debye-Ang)
        XX     -93.1218     XY      21.8101     YY    -121.5775
        XZ     -12.9493     YZ      -6.8179     ZZ    -121.5063
    Octopole Moments (Debye-Ang^2)
       XXX     220.4718    XXY    -298.1571    XYY     154.9867
       YYY    -871.5409    XXZ     -56.2603    XYZ     -22.5913
       YYZ     -83.6203    XZZ     125.3727    YZZ    -291.5373
       ZZZ    -195.7615
    Hexadecapole Moments (Debye-Ang^3)
      XXXX   -5534.5655   XXXY    -554.2151   XXYY   -1961.2234
      XYYY    -537.0863   YYYY   -7916.7169   XXXZ     538.5613
      XXYZ    -242.7154   XYYZ     175.5838   YYYZ    -594.4021
      XXZZ   -1219.3622   XYZZ    -329.4788   YYZZ   -1578.4602
      XZZZ     667.7634   YZZZ    -603.7659   ZZZZ   -1229.5386
    5th-Order Moments (Debye-Ang^4)
       500   27119.5641    410  -10998.0204    320   -2742.1367
       230   -9760.2964    140   -9008.1969    050  -63730.9226
       401   -6156.1315    311     503.9080    221   -1942.3433
       131     807.6582    041   -4870.0597    302    4322.3423
       212   -1936.6421    122   -1539.3102    032   -8364.4394
       203   -3558.0845    113     586.2183    023   -3060.8066
       104    2167.4726    014   -3457.6738    005   -2915.0393
 -----------------------------------------------------------------
 -----------------------------------------------------------------
                 RPA Excited-State Multipoles, State    9   
                  LMN = < X^L Y^M Z^N >
 -----------------------------------------------------------------
    Charge (ESU x 10^10)
                 0.0000
    Dipole Moment (Debye)
         X      14.8586      Y      -1.8674      Z     -10.1890
       Tot      18.1130
    Quadrupole Moments (Debye-Ang)
        XX    -179.4118     XY      46.1566     YY    -107.1365
        XZ      27.8102     YZ     -14.7247     ZZ    -136.6381
    Octopole Moments (Debye-Ang^2)
       XXX     787.4058    XXY    -395.7698    XYY     213.9673
       YYY    -789.1653    XXZ    -300.6208    XYZ      32.5217
       YYZ     -90.6360    XZZ     230.8381    YZZ    -311.1130
       ZZZ    -241.9764
    Hexadecapole Moments (Debye-Ang^3)
      XXXX   -8930.8541   XXXY     165.1913   XXYY   -2048.2521
      XYYY    -304.8969   YYYY   -7439.9750   XXXZ    2011.5167
      XXYZ    -548.0151   XYYZ     276.5895   YYYZ    -574.1563
      XXZZ   -1843.7523   XYZZ    -180.7433   YYZZ   -1598.9532
      XZZZ     944.0386   YZZZ    -666.5476   ZZZZ   -1347.1732
    5th-Order Moments (Debye-Ang^4)
       500   48041.7401    410  -14864.7209    320   -1452.0971
       230   -9580.7314    140   -7845.9082    050  -60943.6826
       401  -14983.4616    311    2342.3929    221   -2411.1194
       131    1054.6255    041   -4635.9217    302    8095.0587
       212   -2757.5248    122   -1270.0772    032   -8334.7111
       203   -5207.8015    113     980.2492    023   -3148.6935
       104    2908.7605    014   -3627.2944    005   -3253.0593
 -----------------------------------------------------------------
 -----------------------------------------------------------------
                 RPA Excited-State Multipoles, State   10   
                  LMN = < X^L Y^M Z^N >
 -----------------------------------------------------------------
    Charge (ESU x 10^10)
                 0.0000
    Dipole Moment (Debye)
         X      22.6377      Y       6.6123      Z      -9.5975
       Tot      25.4617
    Quadrupole Moments (Debye-Ang)
        XX    -187.0727     XY      64.6774     YY     -61.4514
        XZ      30.7544     YZ      -8.9340     ZZ    -133.5058
    Octopole Moments (Debye-Ang^2)
       XXX     869.4769    XXY    -383.8279    XYY     277.2043
       YYY    -562.6960    XXZ    -328.1196    XYZ      32.9042
       YYZ     -51.3298    XZZ     249.9555    YZZ    -281.3875
       ZZZ    -237.7685
    Hexadecapole Moments (Debye-Ang^3)
      XXXX   -9167.0945   XXXY     291.1258   XXYY   -1991.8188
      XYYY     -87.3061   YYYY   -6330.5228   XXXZ    2074.6188
      XXYZ    -606.4872   XYYZ     275.0043   YYYZ    -323.0598
      XXZZ   -1868.0895   XYZZ    -122.1614   YYZZ   -1429.7597
      XZZZ     969.2114   YZZZ    -627.6516   ZZZZ   -1332.1173
    5th-Order Moments (Debye-Ang^4)
       500   49749.9306    410  -14937.8243    320   -1137.6128
       230   -9413.7786    140   -7117.4697    050  -55412.0943
       401  -15595.8822    311    2299.6572    221   -2612.0445
       131    1077.0144    041   -3073.2329    302    8361.5236
       212   -2713.2848    122   -1010.0182    032   -7395.2772
       203   -5315.4177    113    1033.5416    023   -2899.3935
       104    3003.8372    014   -3485.4847    005   -3227.8288
 -----------------------------------------------------------------
 -----------------------------------------------------------------
                 RPA Excited-State Multipoles, State   11   
                  LMN = < X^L Y^M Z^N >
 -----------------------------------------------------------------
    Charge (ESU x 10^10)
                 0.0000
    Dipole Moment (Debye)
         X      -1.0412      Y      -3.6051      Z      -2.7782
       Tot       4.6690
    Quadrupole Moments (Debye-Ang)
        XX     -87.8350     XY      20.2826     YY    -122.5627
        XZ     -15.3371     YZ      -6.3820     ZZ    -120.7003
    Octopole Moments (Debye-Ang^2)
       XXX     191.0757    XXY    -292.4666    XYY     151.7356
       YYY    -876.7278    XXZ     -44.4808    XYZ     -25.3007
       YYZ     -83.3938    XZZ     120.5264    YZZ    -290.7740
       ZZZ    -193.4912
    Hexadecapole Moments (Debye-Ang^3)
      XXXX   -5382.9879   XXXY    -590.2937   XXYY   -1956.6131
      XYYY    -547.7005   YYYY   -7943.1552   XXXZ     477.3162
      XXYZ    -229.6286   XYYZ     171.8934   YYYZ    -595.5685
      XXZZ   -1194.3152   XYZZ    -335.0487   YYZZ   -1578.3743
      XZZZ     656.5669   YZZZ    -601.7110   ZZZZ   -1225.3406
    5th-Order Moments (Debye-Ang^4)
       500   26309.2863    410  -10825.1889    320   -2797.6740
       230   -9772.0833    140   -9059.5215    050  -63871.8627
       401   -5834.2729    311     433.3031    221   -1928.1019
       131     800.1146    041   -4879.7185    302    4189.3363
       212   -1909.3850    122   -1546.5119    032   -8367.4263
       203   -3501.6983    113     574.6265    023   -3059.1337
       104    2144.6711    014   -3453.6940    005   -2905.6418
 -----------------------------------------------------------------
 -----------------------------------------------------------------
                 RPA Excited-State Multipoles, State   12   
                  LMN = < X^L Y^M Z^N >
 -----------------------------------------------------------------
    Charge (ESU x 10^10)
                 0.0000
    Dipole Moment (Debye)
         X      12.7580      Y      -0.3965      Z      -8.3387
       Tot      15.2466
    Quadrupole Moments (Debye-Ang)
        XX    -153.3715     XY      56.1896     YY     -89.3466
        XZ      21.8854     YZ     -12.2205     ZZ    -134.5471
    Octopole Moments (Debye-Ang^2)
       XXX     679.4129    XXY    -366.7067    XYY     261.0145
       YYY    -682.2140    XXZ    -262.8967    XYZ      29.4692
       YYZ     -80.3439    XZZ     217.0471    YZZ    -306.1098
       ZZZ    -233.0595
    Hexadecapole Moments (Debye-Ang^3)
      XXXX   -8215.1739   XXXY     183.5981   XXYY   -1885.1671
      XYYY     -11.9923   YYYY   -6780.4732   XXXZ    1795.0470
      XXYZ    -511.5040   XYYZ     283.8169   YYYZ    -513.5680
      XXZZ   -1748.0260   XYZZ    -183.3204   YYZZ   -1570.3440
      XZZZ     904.7177   YZZZ    -653.9236   ZZZZ   -1327.7186
    5th-Order Moments (Debye-Ang^4)
       500   44478.7441    410  -14179.8591    320   -1190.9417
       230   -8802.2442    140   -6190.2961    050  -56985.3793
       401  -13754.0941    311    2121.6512    221   -2344.3419
       131    1140.0682    041   -4252.8404    302    7587.6733
       212   -2640.1482    122   -1230.1698    032   -8169.0180
       203   -4974.5015    113     944.2884    023   -3103.3680
       104    2805.3907    014   -3588.9165    005   -3187.3135
 -----------------------------------------------------------------
 -----------------------------------------------------------------
                 RPA Excited-State Multipoles, State   13   
                  LMN = < X^L Y^M Z^N >
 -----------------------------------------------------------------
    Charge (ESU x 10^10)
                 0.0000
    Dipole Moment (Debye)
         X      11.4141      Y      -3.7354      Z      -9.3747
       Tot      15.2355
    Quadrupole Moments (Debye-Ang)
        XX    -165.2360     XY      44.8644     YY    -112.5671
        XZ      23.8406     YZ     -14.3635     ZZ    -135.9424
    Octopole Moments (Debye-Ang^2)
       XXX     702.4611    XXY    -393.6277    XYY     206.5406
       YYY    -814.9940    XXZ    -273.5062    XYZ      28.3488
       YYZ     -92.0953    XZZ     218.8675    YZZ    -312.2266
       ZZZ    -237.4498
    Hexadecapole Moments (Debye-Ang^3)
      XXXX   -8480.8944   XXXY     103.4836   XXYY   -2051.7800
      XYYY    -331.3080   YYYY   -7559.7171   XXXZ    1848.7303
      XXYZ    -520.2114   XYYZ     270.2087   YYYZ    -585.0354
      XXZZ   -1777.7551   XYZZ    -194.3895   YYZZ   -1606.6330
      XZZZ     917.9652   YZZZ    -662.9023   ZZZZ   -1341.5457
    5th-Order Moments (Debye-Ang^4)
       500   45530.0831    410  -14486.0315    320   -1560.8300
       230   -9658.4862    140   -8006.0727    050  -61577.7610
       401  -14036.7283    311    2148.0050    221   -2390.1262
       131    1030.4747    041   -4707.5936    302    7698.7726
       212   -2682.8224    122   -1291.1690    032   -8374.7557
       203   -5047.0667    113     945.5879    023   -3155.0704
       104    2843.9338    014   -3625.6740    005   -3233.9900
 -----------------------------------------------------------------
 -----------------------------------------------------------------
                 RPA Excited-State Multipoles, State   14   
                  LMN = < X^L Y^M Z^N >
 -----------------------------------------------------------------
    Charge (ESU x 10^10)
                 0.0000
    Dipole Moment (Debye)
         X      14.0318      Y      -2.8183      Z     -10.4692
       Tot      17.7324
    Quadrupole Moments (Debye-Ang)
        XX    -176.7637     XY      40.5652     YY    -115.6747
        XZ      23.4781     YZ     -14.6131     ZZ    -136.8803
    Octopole Moments (Debye-Ang^2)
       XXX     757.7112    XXY    -384.9802    XYY     201.1392
       YYY    -830.5068    XXZ    -283.1559    XYZ      24.1694
       YYZ     -92.0004    XZZ     225.8953    YZZ    -312.7840
       ZZZ    -244.0084
    Hexadecapole Moments (Debye-Ang^3)
      XXXX   -8795.6100   XXXY      53.6742   XXYY   -2076.3431
      XYYY    -380.2921   YYYY   -7688.7170   XXXZ    1901.7884
      XXYZ    -523.6664   XYYZ     259.8084   YYYZ    -584.8393
      XXZZ   -1818.0682   XYZZ    -194.9529   YYZZ   -1617.6529
      XZZZ     933.5597   YZZZ    -672.2100   ZZZZ   -1373.5262
    5th-Order Moments (Debye-Ang^4)
       500   46961.4030    410  -14513.0804    320   -1674.1138
       230   -9813.8199    140   -8312.0483    050  -62503.8004
       401  -14396.7703    311    2150.1994    221   -2409.0284
       131    1000.9527    041   -4696.4378    302    7891.7836
       212   -2715.8800    122   -1290.8357    032   -8423.2813
       203   -5144.8174    113     961.3054    023   -3180.4733
       104    2924.1133    014   -3683.3216    005   -3332.8880
 -----------------------------------------------------------------
 Total job time:  4676.41s(wall), 62735.40s(cpu) 
 Fri Jan 31 03:27:22 2025

        *************************************************************
        *                                                           *
        *  Thank you very much for using Q-Chem.  Have a nice day.  *
        *                                                           *
        *************************************************************


