
Running Job 1 of 1 Malvidin_Q4_tddft_full.in
qchem Malvidin_Q4_tddft_full.in_3122347.0 /data/brussel/103/vsc10365/activedata/TDDFTAnthocyanidines/qchem3122347/ 1
/apps/brussel/RL8/skylake/software/Q-Chem/6.2.0/exe/qcprog.exe_s Malvidin_Q4_tddft_full.in_3122347.0 /data/brussel/103/vsc10365/activedata/TDDFTAnthocyanidines/qchem3122347/
                  Welcome to Q-Chem
     A Quantum Leap Into The Future Of Chemistry


 Q-Chem 6.2, Q-Chem, Inc., Pleasanton, CA (2024)

 License issued to: SRG Prof. Dr. Frank De Proft, Vrije Universiteit Brussel

 E. Epifanovsky,  A. T. B. Gilbert,  Xintian Feng,  Joonho Lee,  Yuezhi Mao,  
 N. Mardirossian,  P. Pokhilko,  A. White,  M. Wormit,  M. P. Coons,  
 A. L. Dempwolff,  Zhengting Gan,  D. Hait,  P. R. Horn,  L. D. Jacobson,  
 I. Kaliman,  J. Kussmann,  A. W. Lange,  Ka Un Lao,  D. S. Levine,  Jie Liu,  
 S. C. McKenzie,  A. F. Morrison,  K. D. Nanda,  F. Plasser,  D. R. Rehn,  
 M. L. Vidal,  Zhi-Qiang You,  Ying Zhu,  Huseyin Aksu,  B. Alam,  
 B. Albrecht,  A. Aldossary,  E. Alguire,  J. H. Andersen,  
 J. E. Arias-Martinez,  V. Athavale,  D. Barton,  K. Begam,  A. Behn,  
 N. Bellonzi,  Y. A. Bernard,  E. J. Berquist,  H. Burton,  A. Carreras,  
 K. Carter-Fenk,  Mathew Chow,  Romit Chakraborty,  Chandrima Chakravarty,  
 Junhan Chen,  A. D. Chien,  K. D. Closser,  V. Cofer-Shabica,  L. Cunha,  
 S. Dasgupta,  Jia Deng,  Joseph Dickinson,  M. de Wergifosse,  
 M. Diedenhofen,  Hainam Do,  Wenjie Dou,  S. Ehlert,  Po-Tung Fang,  
 S. Fatehi,  Qingguo Feng,  Jonathan Fetherolf,  T. Friedhoff,  
 Thomas Froitzheim,  Sarai Folkestad,  B. Ganoe,  J. Gayvert,  Qinghui Ge,  
 G. Gidofalvi,  M. Gimferrer,  M. Goldey,  Montgomery Gray,  J. Gomes,  
 C. Gonzalez-Espinoza,  S. Gulania,  A. Gunina,  J. A. Gyamfi,  
 M. W. D. Hanson-Heine,  P. H. P. Harbach,  A. W. Hauser,  M. F. Herbst,  
 M. Hernandez Vera,  M. Hodecker,  Z. C. Holden,  S. Houck,  Xunkun Huang,  
 Kerwin Hui,  B. C. Huynh,  K. Ikeda,  M. Ivanov,  Nayanthara K. Jayadev,  
 Hyunjun Ji,  Zuxin Jin,  Hanjie Jiang,  Subrata Jana,  B. Kaduk,  
 S. Kaehler,  R. Kang,  K. Khistyaev,  Jaehoon Kim,  Yongbin Kim,  
 P. Klunzinger,  Z. Koczor-Benda,  Joong Hoon Koh,  D. Kosenkov,  
 Saikiran Kotaru,  L. Koulias,  T. Kowalczyk,  C. M. Krauter,  K. Kue,  
 A. Kunitsa,  T. Kus,  A. Landau,  K. V. Lawler,  D. Lefrancois,  S. Lehtola,  
 Rain Li,  Shaozhi Li,  Tao E. Li,  Yi-Pei Li,  Jiashu Liang,  M. Liebenthal,  
 Hung-Hsuan Lin,  You-Sheng Lin,  Fenglai Liu,  Kuan-Yu Liu,  Xiao Liu,  
 M. Loipersberger,  A. Luenser,  C. Malbon,  Aniket Mandal,  Manisha,  
 A. Manjanath,  P. Manohar,  E. Mansoor,  S. F. Manzer,  Shan-Ping Mao,  
 A. V. Marenich,  T. Markovich,  S. Mason,  F. Matz,  S. A. Maurer,  
 Samuel May,  Alexandra McIsaac,  P. F. McLaughlin,  M. F. S. J. Menger,  
 J.-M. Mewes,  S. A. Mewes,  P. Morgante,  Mohammad Mostafanejad,  
 Madhubani Mukherjee,  J. W. Mullinax,  Quyen Nguyen,  Avik Kumar Ojha,  
 K. J. Oosterbaan,  Eno Paenurk,  Xiaoliang Pan,  G. Paran,  V. Parravicini,  
 Alexander C. Paul,  Suranjan K. Paul,  F. Pavosevic,  Zheng Pei,  S. Prager,  
 E. I. Proynov,  E. Ramos,  B. Rana,  A. E. Rask,  A. Rettig,  R. M. Richard,  
 F. Rob,  E. Rossomme,  T. Scheele,  M. Scheurer,  M. Schneider,  
 P. E. Schneider,  Tim K. Schramm,  N. Sergueev,  S. M. Sharada,  
 Hengyuan Shen,  W. Skomorowski,  D. W. Small,  C. J. Stein,  
 Alistair J. Sterling,  Yingli Su,  Yu-Chuan Su,  E. J. Sundstrom,  
 J. Talbot,  Zhen Tao,  J. Thirman,  Hung-Yi Tsai,  T. Tsuchimochi,  
 N. M. Tubman,  C. Utku,  S. P. Veccham,  O. Vydrov,  Rahel Weiss,  
 J. Wenzel,  Jonathan Wong,  J. Witte,  H. Wu,  Yanze Wu,  A. Yamada,  
 Chou-Hsun Yang,  Kun Yao,  S. Yeganeh,  S. R. Yost,  Qi Yu,  A. Zech,  
 F. Zeller,  Chongxiao Zhao,  Igor Ying Zhang,  Xing Zhang,  Yu Zhang,  
 D. Zuev,  A. Aspuru-Guzik,  A. T. Bell,  N. A. Besley,  K. B. Bravaya,  
 B. R. Brooks,  D. Casanova,  Jeng-Da Chai,  Hsing-Ta Chen,  S. Coriani,  
 C. J. Cramer,  A. E. DePrince, III,  R. A. DiStasio Jr.,  A. Dreuw,  
 B. D. Dunietz,  T. R. Furlani,  W. A. Goddard III,  S. Grimme,  
 S. Hammes-Schiffer,  T. Head-Gordon,  W. J. Hehre,  Chao-Ping Hsu,  
 T.-C. Jagau,  Yousung Jung,  A. Klamt,  Jing Kong,  D. S. Lambrecht,  
 Xiangyuan Li,  WanZhen Liang,  N. J. Mayhall,  C. W. McCurdy,  J. B. Neaton,  
 T. Neudecker,  C. Ochsenfeld,  J. A. Parkhill,  R. Peverati,  
 V. A. Rassolov,  Haisheng Ren,  Yihan Shao,  L. V. Slipchenko,  
 R. P. Steele,  J. E. Subotnik,  A. J. W. Thom,  A. Tkatchenko,  
 D. G. Truhlar,  T. Van Voorhis,  Fan Wang,  T. A. Wesolowski,  K. B. Whaley,  
 H. L. Woodcock III,  P. M. Zimmerman,  S. Faraji,  P. M. W. Gill,  
 M. Head-Gordon,  J. M. Herbert,  A. I. Krylov

 Contributors to earlier versions of Q-Chem not listed above: 
 R. D. Adamson,  B. Austin,  R. Baer,  J. Baker,  G. J. O. Beran,  
 K. Brandhorst,  S. T. Brown,  E. F. C. Byrd,  Arup K. Chakraborty,  
 G. K. L. Chan,  Chun-Min Chang,  Yunqing Chen,  C.-L. Cheng,  
 Siu Hung Chien,  D. M. Chipman,  D. L. Crittenden,  H. Dachsel,  
 R. J. Doerksen,  A. D. Dutoi,  R. G. Edgar,  J. Fosso-Tande,  
 L. Fusti-Molnar,  D. Ghosh,  A. Ghysels,  A. Golubeva-Zadorozhnaya,  
 J. Gonthier,  M. S. Gordon,  S. R. Gwaltney,  G. Hawkins,  J. E. Herr,  
 A. Heyden,  S. Hirata,  E. G. Hohenstein,  G. Kedziora,  F. J. Keil,  
 C. Kelley,  Jihan Kim,  R. A. King,  R. Z. Khaliullin,  P. P. Korambath,  
 W. Kurlancheek,  A. Laurent,  A. M. Lee,  M. S. Lee,  S. V. Levchenko,  
 Ching Yeh Lin,  D. Liotard,  E. Livshits,  R. C. Lochan,  I. Lotan,  
 L. A. Martinez-Martinez,  P. E. Maslen,  N. Nair,  D. P. O'Neill,  
 D. Neuhauser,  E. Neuscamman,  C. M. Oana,  R. Olivares-Amaya,  R. Olson,  
 T. M. Perrine,  B. Peters,  P. A. Pieniazek,  A. Prociuk,  Y. M. Rhee,  
 J. Ritchie,  M. A. Rohrdanz,  E. Rosta,  N. J. Russ,  H. F. Schaefer III,  
 M. W. Schmidt,  N. E. Schultz,  S. Sharma,  N. Shenvi,  C. D. Sherrill,  
 A. C. Simmonett,  A. Sodt,  T. Stein,  D. Stuck,  K. S. Thanthiriwatte,  
 V. Vanovschi,  L. Vogt,  Tao Wang,  A. Warshel,  M. A. Watson,  
 C. F. Williams,  Q. Wu,  X. Xu,  Jun Yang,  W. Zhang,  Yan Zhao

   Please cite Q-Chem as follows:
  "Software for the frontiers of quantum chemistry:
   An overview of developments in the Q-Chem 5 package"
   J. Chem. Phys. 155, 084801 (2021)
   https://doi.org/10.1063/5.0055522 (open access)

 Q-Chem 6.2.0 for Intel X86 EM64T Linux

 Parts of Q-Chem use Armadillo 9.900.5 (Nocturnal Misbehaviour).
 http://arma.sourceforge.net/

 Q-Chem begins on Fri Jan 31 01:11:50 2025  

 Host: 
0

     Scratch files written to /data/brussel/103/vsc10365/activedata/TDDFTAnthocyanidines/qchem3122347//
 May224 |scratch|qcdevops|jenkins|workspace|build_RNUM -1
 Processing $rem in /apps/brussel/RL8/skylake/software/Q-Chem/6.2.0/config/preferences:
 Processing $rem in /user/brussel/103/vsc10365/.qchemrc:
 Symmetry turned off for PCM/SM12/SMD calculation

 Checking the input file for inconsistencies... 	...done.

--------------------------------------------------------------
User input:
--------------------------------------------------------------
$comment
TDDFT calculation of malvidin Q4 structure
nprocs=16
mem=64gb
$end

$molecule
0 1
C   -2.7753986   -1.5408586   -0.4952764
C   -3.9211397   -1.2819802    0.3510044
C   -4.0391490   -0.1362409    1.0743655
C   -3.0180072    0.8706391    1.0214079
C   -1.8957056    0.6020650    0.1816445
C   -1.7555250   -0.5405007   -0.5527200
C   -3.0418030    2.0587508    1.7140024
C   -2.0013571    2.9913838    1.6080399
C   -0.9186157    2.7213590    0.7855297
O   -0.9169920    1.5421552    0.1129868
C    0.2675482    3.5197719    0.5155242
C    0.4209697    4.8214489    1.0245538
C    1.5676439    5.5419549    0.7317321
C    2.5780739    4.9909179   -0.0633484
C    2.4287491    3.6960421   -0.5738055
C    1.2845224    2.9697386   -0.2870865
O   -2.6932155   -2.6234566   -1.1546738
H   -4.6981505   -2.0360166    0.3997567
O   -5.1003926    0.1412459    1.8828771
H   -0.8841404   -0.6962916   -1.1738286
H   -3.8764789    2.2934261    2.3633460
O   -2.0480040    4.1589344    2.3169239
H   -0.3460311    5.2642410    1.6323387
O    1.8315116    6.8116587    1.1622903
O    3.7090762    5.6917881   -0.3533307
H    1.1740114    1.9737623   -0.6809881
H   -5.7303481   -0.5938631    1.8606079
H   -2.8566799    4.1819248    2.8484167
H    3.6505477    6.5597877    0.0764255
C    0.8495740    7.4822782    1.9588658
H    1.2667221    8.4618038    2.1779412
H    0.6703043    6.9433522    2.8907483
H   -0.0851626    7.5963817    1.4069809
O    3.4637145    3.2457481   -1.3402594
C    3.3713607    1.9294221   -1.8939698
H    4.2881314    1.7834975   -2.4596500
H    2.5119988    1.8448752   -2.5621195
H    3.3038867    1.1768035   -1.1059937
$end

$rem
BASIS  =  def2-ma-TZVP
MEM_STATIC  =  2000
MEM_TOTAL  =  64000
METHOD  =  CAM-B3LYP
SOLVENT_METHOD = pcm
SYMMETRY_IGNORE  =  1
CIS_N_ROOTS = 7
CIS_SINGLETS = true
CIS_TRIPLETS = true
CISTR_PRINT = true
RPA = true
PRINT_ORBITALS = true
SCF_PRINT = 1
SCF_FINAL_PRINT = 2
PRINT_GENERAL_BASIS = true
CISTR_PRINT = true
PRINT_RADII_GYRE = true
MULTIPOLE_ORDER = 5
CIS_AMPL_PRINT = 5
CIS_AMPL_ANAL = true
STATE_ANALYSIS = true
$end

$pcm
Theory   CPCM
Method   SWIG
Solver   Inversion
Radii    Bondi
$end

$solvent
Dielectric         78.39
OpticalDielectric  1.777849
$end


--------------------------------------------------------------
 ----------------------------------------------------------------
             Standard Nuclear Orientation (Angstroms)
    I     Atom           X                Y                Z
 ----------------------------------------------------------------
    1      C      -2.7753986000    -1.5408586000    -0.4952764000
    2      C      -3.9211397000    -1.2819802000     0.3510044000
    3      C      -4.0391490000    -0.1362409000     1.0743655000
    4      C      -3.0180072000     0.8706391000     1.0214079000
    5      C      -1.8957056000     0.6020650000     0.1816445000
    6      C      -1.7555250000    -0.5405007000    -0.5527200000
    7      C      -3.0418030000     2.0587508000     1.7140024000
    8      C      -2.0013571000     2.9913838000     1.6080399000
    9      C      -0.9186157000     2.7213590000     0.7855297000
   10      O      -0.9169920000     1.5421552000     0.1129868000
   11      C       0.2675482000     3.5197719000     0.5155242000
   12      C       0.4209697000     4.8214489000     1.0245538000
   13      C       1.5676439000     5.5419549000     0.7317321000
   14      C       2.5780739000     4.9909179000    -0.0633484000
   15      C       2.4287491000     3.6960421000    -0.5738055000
   16      C       1.2845224000     2.9697386000    -0.2870865000
   17      O      -2.6932155000    -2.6234566000    -1.1546738000
   18      H      -4.6981505000    -2.0360166000     0.3997567000
   19      O      -5.1003926000     0.1412459000     1.8828771000
   20      H      -0.8841404000    -0.6962916000    -1.1738286000
   21      H      -3.8764789000     2.2934261000     2.3633460000
   22      O      -2.0480040000     4.1589344000     2.3169239000
   23      H      -0.3460311000     5.2642410000     1.6323387000
   24      O       1.8315116000     6.8116587000     1.1622903000
   25      O       3.7090762000     5.6917881000    -0.3533307000
   26      H       1.1740114000     1.9737623000    -0.6809881000
   27      H      -5.7303481000    -0.5938631000     1.8606079000
   28      H      -2.8566799000     4.1819248000     2.8484167000
   29      H       3.6505477000     6.5597877000     0.0764255000
   30      C       0.8495740000     7.4822782000     1.9588658000
   31      H       1.2667221000     8.4618038000     2.1779412000
   32      H       0.6703043000     6.9433522000     2.8907483000
   33      H      -0.0851626000     7.5963817000     1.4069809000
   34      O       3.4637145000     3.2457481000    -1.3402594000
   35      C       3.3713607000     1.9294221000    -1.8939698000
   36      H       4.2881314000     1.7834975000    -2.4596500000
   37      H       2.5119988000     1.8448752000    -2.5621195000
   38      H       3.3038867000     1.1768035000    -1.1059937000
 ----------------------------------------------------------------
 Nuclear Repulsion Energy =        1990.12825700 hartrees
 There are       86 alpha and       86 beta electrons
 Requested basis set is def2-ma-TZVP
 Basis set in general basis input format:
-----------------------------------------------------------------------
$basis
C    0
S    6    1.000000
   1.35753497E+04    2.22458144E-04 
   2.03523337E+03    1.72327383E-03 
   4.63225624E+02    8.92557153E-03 
   1.31200196E+02    3.57279845E-02 
   4.28530159E+01    1.10762599E-01 
   1.55841858E+01    2.42956276E-01 
S    2    1.000000
   6.20671385E+00    4.14402634E-01 
   2.57648965E+00    2.37449687E-01 
S    1    1.000000
   5.76963394E-01    1.00000000E+00 
S    1    1.000000
   2.29728314E-01    1.00000000E+00 
S    1    1.000000
   9.51644400E-02    1.00000000E+00 
S    1    1.000000
   4.84754014E-02    1.00000000E+00 
P    4    1.000000
   3.46972322E+01    5.33336578E-03 
   7.95826228E+00    3.58641091E-02 
   2.37808269E+00    1.42158733E-01 
   8.14332082E-01    3.42704718E-01 
P    1    1.000000
   2.88875473E-01    4.64458224E-01 
P    1    1.000000
   1.00568237E-01    2.49557899E-01 
D    1    1.000000
   1.09700000E+00    1.00000000E+00 
D    1    1.000000
   3.18000000E-01    1.00000000E+00 
F    1    1.000000
   7.61000000E-01    1.00000000E+00 
****
C    0
S    6    1.000000
   1.35753497E+04    2.22458144E-04 
   2.03523337E+03    1.72327383E-03 
   4.63225624E+02    8.92557153E-03 
   1.31200196E+02    3.57279845E-02 
   4.28530159E+01    1.10762599E-01 
   1.55841858E+01    2.42956276E-01 
S    2    1.000000
   6.20671385E+00    4.14402634E-01 
   2.57648965E+00    2.37449687E-01 
S    1    1.000000
   5.76963394E-01    1.00000000E+00 
S    1    1.000000
   2.29728314E-01    1.00000000E+00 
S    1    1.000000
   9.51644400E-02    1.00000000E+00 
S    1    1.000000
   4.84754014E-02    1.00000000E+00 
P    4    1.000000
   3.46972322E+01    5.33336578E-03 
   7.95826228E+00    3.58641091E-02 
   2.37808269E+00    1.42158733E-01 
   8.14332082E-01    3.42704718E-01 
P    1    1.000000
   2.88875473E-01    4.64458224E-01 
P    1    1.000000
   1.00568237E-01    2.49557899E-01 
D    1    1.000000
   1.09700000E+00    1.00000000E+00 
D    1    1.000000
   3.18000000E-01    1.00000000E+00 
F    1    1.000000
   7.61000000E-01    1.00000000E+00 
****
C    0
S    6    1.000000
   1.35753497E+04    2.22458144E-04 
   2.03523337E+03    1.72327383E-03 
   4.63225624E+02    8.92557153E-03 
   1.31200196E+02    3.57279845E-02 
   4.28530159E+01    1.10762599E-01 
   1.55841858E+01    2.42956276E-01 
S    2    1.000000
   6.20671385E+00    4.14402634E-01 
   2.57648965E+00    2.37449687E-01 
S    1    1.000000
   5.76963394E-01    1.00000000E+00 
S    1    1.000000
   2.29728314E-01    1.00000000E+00 
S    1    1.000000
   9.51644400E-02    1.00000000E+00 
S    1    1.000000
   4.84754014E-02    1.00000000E+00 
P    4    1.000000
   3.46972322E+01    5.33336578E-03 
   7.95826228E+00    3.58641091E-02 
   2.37808269E+00    1.42158733E-01 
   8.14332082E-01    3.42704718E-01 
P    1    1.000000
   2.88875473E-01    4.64458224E-01 
P    1    1.000000
   1.00568237E-01    2.49557899E-01 
D    1    1.000000
   1.09700000E+00    1.00000000E+00 
D    1    1.000000
   3.18000000E-01    1.00000000E+00 
F    1    1.000000
   7.61000000E-01    1.00000000E+00 
****
C    0
S    6    1.000000
   1.35753497E+04    2.22458144E-04 
   2.03523337E+03    1.72327383E-03 
   4.63225624E+02    8.92557153E-03 
   1.31200196E+02    3.57279845E-02 
   4.28530159E+01    1.10762599E-01 
   1.55841858E+01    2.42956276E-01 
S    2    1.000000
   6.20671385E+00    4.14402634E-01 
   2.57648965E+00    2.37449687E-01 
S    1    1.000000
   5.76963394E-01    1.00000000E+00 
S    1    1.000000
   2.29728314E-01    1.00000000E+00 
S    1    1.000000
   9.51644400E-02    1.00000000E+00 
S    1    1.000000
   4.84754014E-02    1.00000000E+00 
P    4    1.000000
   3.46972322E+01    5.33336578E-03 
   7.95826228E+00    3.58641091E-02 
   2.37808269E+00    1.42158733E-01 
   8.14332082E-01    3.42704718E-01 
P    1    1.000000
   2.88875473E-01    4.64458224E-01 
P    1    1.000000
   1.00568237E-01    2.49557899E-01 
D    1    1.000000
   1.09700000E+00    1.00000000E+00 
D    1    1.000000
   3.18000000E-01    1.00000000E+00 
F    1    1.000000
   7.61000000E-01    1.00000000E+00 
****
C    0
S    6    1.000000
   1.35753497E+04    2.22458144E-04 
   2.03523337E+03    1.72327383E-03 
   4.63225624E+02    8.92557153E-03 
   1.31200196E+02    3.57279845E-02 
   4.28530159E+01    1.10762599E-01 
   1.55841858E+01    2.42956276E-01 
S    2    1.000000
   6.20671385E+00    4.14402634E-01 
   2.57648965E+00    2.37449687E-01 
S    1    1.000000
   5.76963394E-01    1.00000000E+00 
S    1    1.000000
   2.29728314E-01    1.00000000E+00 
S    1    1.000000
   9.51644400E-02    1.00000000E+00 
S    1    1.000000
   4.84754014E-02    1.00000000E+00 
P    4    1.000000
   3.46972322E+01    5.33336578E-03 
   7.95826228E+00    3.58641091E-02 
   2.37808269E+00    1.42158733E-01 
   8.14332082E-01    3.42704718E-01 
P    1    1.000000
   2.88875473E-01    4.64458224E-01 
P    1    1.000000
   1.00568237E-01    2.49557899E-01 
D    1    1.000000
   1.09700000E+00    1.00000000E+00 
D    1    1.000000
   3.18000000E-01    1.00000000E+00 
F    1    1.000000
   7.61000000E-01    1.00000000E+00 
****
C    0
S    6    1.000000
   1.35753497E+04    2.22458144E-04 
   2.03523337E+03    1.72327383E-03 
   4.63225624E+02    8.92557153E-03 
   1.31200196E+02    3.57279845E-02 
   4.28530159E+01    1.10762599E-01 
   1.55841858E+01    2.42956276E-01 
S    2    1.000000
   6.20671385E+00    4.14402634E-01 
   2.57648965E+00    2.37449687E-01 
S    1    1.000000
   5.76963394E-01    1.00000000E+00 
S    1    1.000000
   2.29728314E-01    1.00000000E+00 
S    1    1.000000
   9.51644400E-02    1.00000000E+00 
S    1    1.000000
   4.84754014E-02    1.00000000E+00 
P    4    1.000000
   3.46972322E+01    5.33336578E-03 
   7.95826228E+00    3.58641091E-02 
   2.37808269E+00    1.42158733E-01 
   8.14332082E-01    3.42704718E-01 
P    1    1.000000
   2.88875473E-01    4.64458224E-01 
P    1    1.000000
   1.00568237E-01    2.49557899E-01 
D    1    1.000000
   1.09700000E+00    1.00000000E+00 
D    1    1.000000
   3.18000000E-01    1.00000000E+00 
F    1    1.000000
   7.61000000E-01    1.00000000E+00 
****
C    0
S    6    1.000000
   1.35753497E+04    2.22458144E-04 
   2.03523337E+03    1.72327383E-03 
   4.63225624E+02    8.92557153E-03 
   1.31200196E+02    3.57279845E-02 
   4.28530159E+01    1.10762599E-01 
   1.55841858E+01    2.42956276E-01 
S    2    1.000000
   6.20671385E+00    4.14402634E-01 
   2.57648965E+00    2.37449687E-01 
S    1    1.000000
   5.76963394E-01    1.00000000E+00 
S    1    1.000000
   2.29728314E-01    1.00000000E+00 
S    1    1.000000
   9.51644400E-02    1.00000000E+00 
S    1    1.000000
   4.84754014E-02    1.00000000E+00 
P    4    1.000000
   3.46972322E+01    5.33336578E-03 
   7.95826228E+00    3.58641091E-02 
   2.37808269E+00    1.42158733E-01 
   8.14332082E-01    3.42704718E-01 
P    1    1.000000
   2.88875473E-01    4.64458224E-01 
P    1    1.000000
   1.00568237E-01    2.49557899E-01 
D    1    1.000000
   1.09700000E+00    1.00000000E+00 
D    1    1.000000
   3.18000000E-01    1.00000000E+00 
F    1    1.000000
   7.61000000E-01    1.00000000E+00 
****
C    0
S    6    1.000000
   1.35753497E+04    2.22458144E-04 
   2.03523337E+03    1.72327383E-03 
   4.63225624E+02    8.92557153E-03 
   1.31200196E+02    3.57279845E-02 
   4.28530159E+01    1.10762599E-01 
   1.55841858E+01    2.42956276E-01 
S    2    1.000000
   6.20671385E+00    4.14402634E-01 
   2.57648965E+00    2.37449687E-01 
S    1    1.000000
   5.76963394E-01    1.00000000E+00 
S    1    1.000000
   2.29728314E-01    1.00000000E+00 
S    1    1.000000
   9.51644400E-02    1.00000000E+00 
S    1    1.000000
   4.84754014E-02    1.00000000E+00 
P    4    1.000000
   3.46972322E+01    5.33336578E-03 
   7.95826228E+00    3.58641091E-02 
   2.37808269E+00    1.42158733E-01 
   8.14332082E-01    3.42704718E-01 
P    1    1.000000
   2.88875473E-01    4.64458224E-01 
P    1    1.000000
   1.00568237E-01    2.49557899E-01 
D    1    1.000000
   1.09700000E+00    1.00000000E+00 
D    1    1.000000
   3.18000000E-01    1.00000000E+00 
F    1    1.000000
   7.61000000E-01    1.00000000E+00 
****
C    0
S    6    1.000000
   1.35753497E+04    2.22458144E-04 
   2.03523337E+03    1.72327383E-03 
   4.63225624E+02    8.92557153E-03 
   1.31200196E+02    3.57279845E-02 
   4.28530159E+01    1.10762599E-01 
   1.55841858E+01    2.42956276E-01 
S    2    1.000000
   6.20671385E+00    4.14402634E-01 
   2.57648965E+00    2.37449687E-01 
S    1    1.000000
   5.76963394E-01    1.00000000E+00 
S    1    1.000000
   2.29728314E-01    1.00000000E+00 
S    1    1.000000
   9.51644400E-02    1.00000000E+00 
S    1    1.000000
   4.84754014E-02    1.00000000E+00 
P    4    1.000000
   3.46972322E+01    5.33336578E-03 
   7.95826228E+00    3.58641091E-02 
   2.37808269E+00    1.42158733E-01 
   8.14332082E-01    3.42704718E-01 
P    1    1.000000
   2.88875473E-01    4.64458224E-01 
P    1    1.000000
   1.00568237E-01    2.49557899E-01 
D    1    1.000000
   1.09700000E+00    1.00000000E+00 
D    1    1.000000
   3.18000000E-01    1.00000000E+00 
F    1    1.000000
   7.61000000E-01    1.00000000E+00 
****
O    0
S    6    1.000000
   2.70323826E+04    2.17263025E-04 
   4.05238714E+03    1.68386622E-03 
   9.22327227E+02    8.73956163E-03 
   2.61240710E+02    3.52399688E-02 
   8.53546414E+01    1.11535191E-01 
   3.10350352E+01    2.55889540E-01 
S    2    1.000000
   1.22608607E+01    3.97687309E-01 
   4.99870760E+00    2.46278494E-01 
S    1    1.000000
   1.17031082E+00    1.00000000E+00 
S    1    1.000000
   4.64747410E-01    1.00000000E+00 
S    1    1.000000
   1.85045364E-01    1.00000000E+00 
S    1    1.000000
   7.02880263E-02    1.00000000E+00 
P    4    1.000000
   6.32749548E+01    6.06851034E-03 
   1.46270494E+01    4.19125758E-02 
   4.45012235E+00    1.61538411E-01 
   1.52757996E+00    3.57069513E-01 
P    1    1.000000
   5.29351179E-01    4.47942075E-01 
P    1    1.000000
   1.74784213E-01    2.44460697E-01 
P    1    1.000000
   5.11127457E-02    1.00000000E+00 
D    1    1.000000
   2.31400000E+00    1.00000000E+00 
D    1    1.000000
   6.45000000E-01    1.00000000E+00 
F    1    1.000000
   1.42800000E+00    1.00000000E+00 
****
C    0
S    6    1.000000
   1.35753497E+04    2.22458144E-04 
   2.03523337E+03    1.72327383E-03 
   4.63225624E+02    8.92557153E-03 
   1.31200196E+02    3.57279845E-02 
   4.28530159E+01    1.10762599E-01 
   1.55841858E+01    2.42956276E-01 
S    2    1.000000
   6.20671385E+00    4.14402634E-01 
   2.57648965E+00    2.37449687E-01 
S    1    1.000000
   5.76963394E-01    1.00000000E+00 
S    1    1.000000
   2.29728314E-01    1.00000000E+00 
S    1    1.000000
   9.51644400E-02    1.00000000E+00 
S    1    1.000000
   4.84754014E-02    1.00000000E+00 
P    4    1.000000
   3.46972322E+01    5.33336578E-03 
   7.95826228E+00    3.58641091E-02 
   2.37808269E+00    1.42158733E-01 
   8.14332082E-01    3.42704718E-01 
P    1    1.000000
   2.88875473E-01    4.64458224E-01 
P    1    1.000000
   1.00568237E-01    2.49557899E-01 
D    1    1.000000
   1.09700000E+00    1.00000000E+00 
D    1    1.000000
   3.18000000E-01    1.00000000E+00 
F    1    1.000000
   7.61000000E-01    1.00000000E+00 
****
C    0
S    6    1.000000
   1.35753497E+04    2.22458144E-04 
   2.03523337E+03    1.72327383E-03 
   4.63225624E+02    8.92557153E-03 
   1.31200196E+02    3.57279845E-02 
   4.28530159E+01    1.10762599E-01 
   1.55841858E+01    2.42956276E-01 
S    2    1.000000
   6.20671385E+00    4.14402634E-01 
   2.57648965E+00    2.37449687E-01 
S    1    1.000000
   5.76963394E-01    1.00000000E+00 
S    1    1.000000
   2.29728314E-01    1.00000000E+00 
S    1    1.000000
   9.51644400E-02    1.00000000E+00 
S    1    1.000000
   4.84754014E-02    1.00000000E+00 
P    4    1.000000
   3.46972322E+01    5.33336578E-03 
   7.95826228E+00    3.58641091E-02 
   2.37808269E+00    1.42158733E-01 
   8.14332082E-01    3.42704718E-01 
P    1    1.000000
   2.88875473E-01    4.64458224E-01 
P    1    1.000000
   1.00568237E-01    2.49557899E-01 
D    1    1.000000
   1.09700000E+00    1.00000000E+00 
D    1    1.000000
   3.18000000E-01    1.00000000E+00 
F    1    1.000000
   7.61000000E-01    1.00000000E+00 
****
C    0
S    6    1.000000
   1.35753497E+04    2.22458144E-04 
   2.03523337E+03    1.72327383E-03 
   4.63225624E+02    8.92557153E-03 
   1.31200196E+02    3.57279845E-02 
   4.28530159E+01    1.10762599E-01 
   1.55841858E+01    2.42956276E-01 
S    2    1.000000
   6.20671385E+00    4.14402634E-01 
   2.57648965E+00    2.37449687E-01 
S    1    1.000000
   5.76963394E-01    1.00000000E+00 
S    1    1.000000
   2.29728314E-01    1.00000000E+00 
S    1    1.000000
   9.51644400E-02    1.00000000E+00 
S    1    1.000000
   4.84754014E-02    1.00000000E+00 
P    4    1.000000
   3.46972322E+01    5.33336578E-03 
   7.95826228E+00    3.58641091E-02 
   2.37808269E+00    1.42158733E-01 
   8.14332082E-01    3.42704718E-01 
P    1    1.000000
   2.88875473E-01    4.64458224E-01 
P    1    1.000000
   1.00568237E-01    2.49557899E-01 
D    1    1.000000
   1.09700000E+00    1.00000000E+00 
D    1    1.000000
   3.18000000E-01    1.00000000E+00 
F    1    1.000000
   7.61000000E-01    1.00000000E+00 
****
C    0
S    6    1.000000
   1.35753497E+04    2.22458144E-04 
   2.03523337E+03    1.72327383E-03 
   4.63225624E+02    8.92557153E-03 
   1.31200196E+02    3.57279845E-02 
   4.28530159E+01    1.10762599E-01 
   1.55841858E+01    2.42956276E-01 
S    2    1.000000
   6.20671385E+00    4.14402634E-01 
   2.57648965E+00    2.37449687E-01 
S    1    1.000000
   5.76963394E-01    1.00000000E+00 
S    1    1.000000
   2.29728314E-01    1.00000000E+00 
S    1    1.000000
   9.51644400E-02    1.00000000E+00 
S    1    1.000000
   4.84754014E-02    1.00000000E+00 
P    4    1.000000
   3.46972322E+01    5.33336578E-03 
   7.95826228E+00    3.58641091E-02 
   2.37808269E+00    1.42158733E-01 
   8.14332082E-01    3.42704718E-01 
P    1    1.000000
   2.88875473E-01    4.64458224E-01 
P    1    1.000000
   1.00568237E-01    2.49557899E-01 
D    1    1.000000
   1.09700000E+00    1.00000000E+00 
D    1    1.000000
   3.18000000E-01    1.00000000E+00 
F    1    1.000000
   7.61000000E-01    1.00000000E+00 
****
C    0
S    6    1.000000
   1.35753497E+04    2.22458144E-04 
   2.03523337E+03    1.72327383E-03 
   4.63225624E+02    8.92557153E-03 
   1.31200196E+02    3.57279845E-02 
   4.28530159E+01    1.10762599E-01 
   1.55841858E+01    2.42956276E-01 
S    2    1.000000
   6.20671385E+00    4.14402634E-01 
   2.57648965E+00    2.37449687E-01 
S    1    1.000000
   5.76963394E-01    1.00000000E+00 
S    1    1.000000
   2.29728314E-01    1.00000000E+00 
S    1    1.000000
   9.51644400E-02    1.00000000E+00 
S    1    1.000000
   4.84754014E-02    1.00000000E+00 
P    4    1.000000
   3.46972322E+01    5.33336578E-03 
   7.95826228E+00    3.58641091E-02 
   2.37808269E+00    1.42158733E-01 
   8.14332082E-01    3.42704718E-01 
P    1    1.000000
   2.88875473E-01    4.64458224E-01 
P    1    1.000000
   1.00568237E-01    2.49557899E-01 
D    1    1.000000
   1.09700000E+00    1.00000000E+00 
D    1    1.000000
   3.18000000E-01    1.00000000E+00 
F    1    1.000000
   7.61000000E-01    1.00000000E+00 
****
C    0
S    6    1.000000
   1.35753497E+04    2.22458144E-04 
   2.03523337E+03    1.72327383E-03 
   4.63225624E+02    8.92557153E-03 
   1.31200196E+02    3.57279845E-02 
   4.28530159E+01    1.10762599E-01 
   1.55841858E+01    2.42956276E-01 
S    2    1.000000
   6.20671385E+00    4.14402634E-01 
   2.57648965E+00    2.37449687E-01 
S    1    1.000000
   5.76963394E-01    1.00000000E+00 
S    1    1.000000
   2.29728314E-01    1.00000000E+00 
S    1    1.000000
   9.51644400E-02    1.00000000E+00 
S    1    1.000000
   4.84754014E-02    1.00000000E+00 
P    4    1.000000
   3.46972322E+01    5.33336578E-03 
   7.95826228E+00    3.58641091E-02 
   2.37808269E+00    1.42158733E-01 
   8.14332082E-01    3.42704718E-01 
P    1    1.000000
   2.88875473E-01    4.64458224E-01 
P    1    1.000000
   1.00568237E-01    2.49557899E-01 
D    1    1.000000
   1.09700000E+00    1.00000000E+00 
D    1    1.000000
   3.18000000E-01    1.00000000E+00 
F    1    1.000000
   7.61000000E-01    1.00000000E+00 
****
O    0
S    6    1.000000
   2.70323826E+04    2.17263025E-04 
   4.05238714E+03    1.68386622E-03 
   9.22327227E+02    8.73956163E-03 
   2.61240710E+02    3.52399688E-02 
   8.53546414E+01    1.11535191E-01 
   3.10350352E+01    2.55889540E-01 
S    2    1.000000
   1.22608607E+01    3.97687309E-01 
   4.99870760E+00    2.46278494E-01 
S    1    1.000000
   1.17031082E+00    1.00000000E+00 
S    1    1.000000
   4.64747410E-01    1.00000000E+00 
S    1    1.000000
   1.85045364E-01    1.00000000E+00 
S    1    1.000000
   7.02880263E-02    1.00000000E+00 
P    4    1.000000
   6.32749548E+01    6.06851034E-03 
   1.46270494E+01    4.19125758E-02 
   4.45012235E+00    1.61538411E-01 
   1.52757996E+00    3.57069513E-01 
P    1    1.000000
   5.29351179E-01    4.47942075E-01 
P    1    1.000000
   1.74784213E-01    2.44460697E-01 
P    1    1.000000
   5.11127457E-02    1.00000000E+00 
D    1    1.000000
   2.31400000E+00    1.00000000E+00 
D    1    1.000000
   6.45000000E-01    1.00000000E+00 
F    1    1.000000
   1.42800000E+00    1.00000000E+00 
****
H    0
S    3    1.000000
   3.40613410E+01    6.02519780E-03 
   5.12357460E+00    4.50210940E-02 
   1.16466260E+00    2.01897260E-01 
S    1    1.000000
   3.27230410E-01    1.00000000E+00 
S    1    1.000000
   1.03072410E-01    1.00000000E+00 
P    1    1.000000
   8.00000000E-01    1.00000000E+00 
****
O    0
S    6    1.000000
   2.70323826E+04    2.17263025E-04 
   4.05238714E+03    1.68386622E-03 
   9.22327227E+02    8.73956163E-03 
   2.61240710E+02    3.52399688E-02 
   8.53546414E+01    1.11535191E-01 
   3.10350352E+01    2.55889540E-01 
S    2    1.000000
   1.22608607E+01    3.97687309E-01 
   4.99870760E+00    2.46278494E-01 
S    1    1.000000
   1.17031082E+00    1.00000000E+00 
S    1    1.000000
   4.64747410E-01    1.00000000E+00 
S    1    1.000000
   1.85045364E-01    1.00000000E+00 
S    1    1.000000
   7.02880263E-02    1.00000000E+00 
P    4    1.000000
   6.32749548E+01    6.06851034E-03 
   1.46270494E+01    4.19125758E-02 
   4.45012235E+00    1.61538411E-01 
   1.52757996E+00    3.57069513E-01 
P    1    1.000000
   5.29351179E-01    4.47942075E-01 
P    1    1.000000
   1.74784213E-01    2.44460697E-01 
P    1    1.000000
   5.11127457E-02    1.00000000E+00 
D    1    1.000000
   2.31400000E+00    1.00000000E+00 
D    1    1.000000
   6.45000000E-01    1.00000000E+00 
F    1    1.000000
   1.42800000E+00    1.00000000E+00 
****
H    0
S    3    1.000000
   3.40613410E+01    6.02519780E-03 
   5.12357460E+00    4.50210940E-02 
   1.16466260E+00    2.01897260E-01 
S    1    1.000000
   3.27230410E-01    1.00000000E+00 
S    1    1.000000
   1.03072410E-01    1.00000000E+00 
P    1    1.000000
   8.00000000E-01    1.00000000E+00 
****
H    0
S    3    1.000000
   3.40613410E+01    6.02519780E-03 
   5.12357460E+00    4.50210940E-02 
   1.16466260E+00    2.01897260E-01 
S    1    1.000000
   3.27230410E-01    1.00000000E+00 
S    1    1.000000
   1.03072410E-01    1.00000000E+00 
P    1    1.000000
   8.00000000E-01    1.00000000E+00 
****
O    0
S    6    1.000000
   2.70323826E+04    2.17263025E-04 
   4.05238714E+03    1.68386622E-03 
   9.22327227E+02    8.73956163E-03 
   2.61240710E+02    3.52399688E-02 
   8.53546414E+01    1.11535191E-01 
   3.10350352E+01    2.55889540E-01 
S    2    1.000000
   1.22608607E+01    3.97687309E-01 
   4.99870760E+00    2.46278494E-01 
S    1    1.000000
   1.17031082E+00    1.00000000E+00 
S    1    1.000000
   4.64747410E-01    1.00000000E+00 
S    1    1.000000
   1.85045364E-01    1.00000000E+00 
S    1    1.000000
   7.02880263E-02    1.00000000E+00 
P    4    1.000000
   6.32749548E+01    6.06851034E-03 
   1.46270494E+01    4.19125758E-02 
   4.45012235E+00    1.61538411E-01 
   1.52757996E+00    3.57069513E-01 
P    1    1.000000
   5.29351179E-01    4.47942075E-01 
P    1    1.000000
   1.74784213E-01    2.44460697E-01 
P    1    1.000000
   5.11127457E-02    1.00000000E+00 
D    1    1.000000
   2.31400000E+00    1.00000000E+00 
D    1    1.000000
   6.45000000E-01    1.00000000E+00 
F    1    1.000000
   1.42800000E+00    1.00000000E+00 
****
H    0
S    3    1.000000
   3.40613410E+01    6.02519780E-03 
   5.12357460E+00    4.50210940E-02 
   1.16466260E+00    2.01897260E-01 
S    1    1.000000
   3.27230410E-01    1.00000000E+00 
S    1    1.000000
   1.03072410E-01    1.00000000E+00 
P    1    1.000000
   8.00000000E-01    1.00000000E+00 
****
O    0
S    6    1.000000
   2.70323826E+04    2.17263025E-04 
   4.05238714E+03    1.68386622E-03 
   9.22327227E+02    8.73956163E-03 
   2.61240710E+02    3.52399688E-02 
   8.53546414E+01    1.11535191E-01 
   3.10350352E+01    2.55889540E-01 
S    2    1.000000
   1.22608607E+01    3.97687309E-01 
   4.99870760E+00    2.46278494E-01 
S    1    1.000000
   1.17031082E+00    1.00000000E+00 
S    1    1.000000
   4.64747410E-01    1.00000000E+00 
S    1    1.000000
   1.85045364E-01    1.00000000E+00 
S    1    1.000000
   7.02880263E-02    1.00000000E+00 
P    4    1.000000
   6.32749548E+01    6.06851034E-03 
   1.46270494E+01    4.19125758E-02 
   4.45012235E+00    1.61538411E-01 
   1.52757996E+00    3.57069513E-01 
P    1    1.000000
   5.29351179E-01    4.47942075E-01 
P    1    1.000000
   1.74784213E-01    2.44460697E-01 
P    1    1.000000
   5.11127457E-02    1.00000000E+00 
D    1    1.000000
   2.31400000E+00    1.00000000E+00 
D    1    1.000000
   6.45000000E-01    1.00000000E+00 
F    1    1.000000
   1.42800000E+00    1.00000000E+00 
****
O    0
S    6    1.000000
   2.70323826E+04    2.17263025E-04 
   4.05238714E+03    1.68386622E-03 
   9.22327227E+02    8.73956163E-03 
   2.61240710E+02    3.52399688E-02 
   8.53546414E+01    1.11535191E-01 
   3.10350352E+01    2.55889540E-01 
S    2    1.000000
   1.22608607E+01    3.97687309E-01 
   4.99870760E+00    2.46278494E-01 
S    1    1.000000
   1.17031082E+00    1.00000000E+00 
S    1    1.000000
   4.64747410E-01    1.00000000E+00 
S    1    1.000000
   1.85045364E-01    1.00000000E+00 
S    1    1.000000
   7.02880263E-02    1.00000000E+00 
P    4    1.000000
   6.32749548E+01    6.06851034E-03 
   1.46270494E+01    4.19125758E-02 
   4.45012235E+00    1.61538411E-01 
   1.52757996E+00    3.57069513E-01 
P    1    1.000000
   5.29351179E-01    4.47942075E-01 
P    1    1.000000
   1.74784213E-01    2.44460697E-01 
P    1    1.000000
   5.11127457E-02    1.00000000E+00 
D    1    1.000000
   2.31400000E+00    1.00000000E+00 
D    1    1.000000
   6.45000000E-01    1.00000000E+00 
F    1    1.000000
   1.42800000E+00    1.00000000E+00 
****
H    0
S    3    1.000000
   3.40613410E+01    6.02519780E-03 
   5.12357460E+00    4.50210940E-02 
   1.16466260E+00    2.01897260E-01 
S    1    1.000000
   3.27230410E-01    1.00000000E+00 
S    1    1.000000
   1.03072410E-01    1.00000000E+00 
P    1    1.000000
   8.00000000E-01    1.00000000E+00 
****
H    0
S    3    1.000000
   3.40613410E+01    6.02519780E-03 
   5.12357460E+00    4.50210940E-02 
   1.16466260E+00    2.01897260E-01 
S    1    1.000000
   3.27230410E-01    1.00000000E+00 
S    1    1.000000
   1.03072410E-01    1.00000000E+00 
P    1    1.000000
   8.00000000E-01    1.00000000E+00 
****
H    0
S    3    1.000000
   3.40613410E+01    6.02519780E-03 
   5.12357460E+00    4.50210940E-02 
   1.16466260E+00    2.01897260E-01 
S    1    1.000000
   3.27230410E-01    1.00000000E+00 
S    1    1.000000
   1.03072410E-01    1.00000000E+00 
P    1    1.000000
   8.00000000E-01    1.00000000E+00 
****
H    0
S    3    1.000000
   3.40613410E+01    6.02519780E-03 
   5.12357460E+00    4.50210940E-02 
   1.16466260E+00    2.01897260E-01 
S    1    1.000000
   3.27230410E-01    1.00000000E+00 
S    1    1.000000
   1.03072410E-01    1.00000000E+00 
P    1    1.000000
   8.00000000E-01    1.00000000E+00 
****
C    0
S    6    1.000000
   1.35753497E+04    2.22458144E-04 
   2.03523337E+03    1.72327383E-03 
   4.63225624E+02    8.92557153E-03 
   1.31200196E+02    3.57279845E-02 
   4.28530159E+01    1.10762599E-01 
   1.55841858E+01    2.42956276E-01 
S    2    1.000000
   6.20671385E+00    4.14402634E-01 
   2.57648965E+00    2.37449687E-01 
S    1    1.000000
   5.76963394E-01    1.00000000E+00 
S    1    1.000000
   2.29728314E-01    1.00000000E+00 
S    1    1.000000
   9.51644400E-02    1.00000000E+00 
S    1    1.000000
   4.84754014E-02    1.00000000E+00 
P    4    1.000000
   3.46972322E+01    5.33336578E-03 
   7.95826228E+00    3.58641091E-02 
   2.37808269E+00    1.42158733E-01 
   8.14332082E-01    3.42704718E-01 
P    1    1.000000
   2.88875473E-01    4.64458224E-01 
P    1    1.000000
   1.00568237E-01    2.49557899E-01 
D    1    1.000000
   1.09700000E+00    1.00000000E+00 
D    1    1.000000
   3.18000000E-01    1.00000000E+00 
F    1    1.000000
   7.61000000E-01    1.00000000E+00 
****
H    0
S    3    1.000000
   3.40613410E+01    6.02519780E-03 
   5.12357460E+00    4.50210940E-02 
   1.16466260E+00    2.01897260E-01 
S    1    1.000000
   3.27230410E-01    1.00000000E+00 
S    1    1.000000
   1.03072410E-01    1.00000000E+00 
P    1    1.000000
   8.00000000E-01    1.00000000E+00 
****
H    0
S    3    1.000000
   3.40613410E+01    6.02519780E-03 
   5.12357460E+00    4.50210940E-02 
   1.16466260E+00    2.01897260E-01 
S    1    1.000000
   3.27230410E-01    1.00000000E+00 
S    1    1.000000
   1.03072410E-01    1.00000000E+00 
P    1    1.000000
   8.00000000E-01    1.00000000E+00 
****
H    0
S    3    1.000000
   3.40613410E+01    6.02519780E-03 
   5.12357460E+00    4.50210940E-02 
   1.16466260E+00    2.01897260E-01 
S    1    1.000000
   3.27230410E-01    1.00000000E+00 
S    1    1.000000
   1.03072410E-01    1.00000000E+00 
P    1    1.000000
   8.00000000E-01    1.00000000E+00 
****
O    0
S    6    1.000000
   2.70323826E+04    2.17263025E-04 
   4.05238714E+03    1.68386622E-03 
   9.22327227E+02    8.73956163E-03 
   2.61240710E+02    3.52399688E-02 
   8.53546414E+01    1.11535191E-01 
   3.10350352E+01    2.55889540E-01 
S    2    1.000000
   1.22608607E+01    3.97687309E-01 
   4.99870760E+00    2.46278494E-01 
S    1    1.000000
   1.17031082E+00    1.00000000E+00 
S    1    1.000000
   4.64747410E-01    1.00000000E+00 
S    1    1.000000
   1.85045364E-01    1.00000000E+00 
S    1    1.000000
   7.02880263E-02    1.00000000E+00 
P    4    1.000000
   6.32749548E+01    6.06851034E-03 
   1.46270494E+01    4.19125758E-02 
   4.45012235E+00    1.61538411E-01 
   1.52757996E+00    3.57069513E-01 
P    1    1.000000
   5.29351179E-01    4.47942075E-01 
P    1    1.000000
   1.74784213E-01    2.44460697E-01 
P    1    1.000000
   5.11127457E-02    1.00000000E+00 
D    1    1.000000
   2.31400000E+00    1.00000000E+00 
D    1    1.000000
   6.45000000E-01    1.00000000E+00 
F    1    1.000000
   1.42800000E+00    1.00000000E+00 
****
C    0
S    6    1.000000
   1.35753497E+04    2.22458144E-04 
   2.03523337E+03    1.72327383E-03 
   4.63225624E+02    8.92557153E-03 
   1.31200196E+02    3.57279845E-02 
   4.28530159E+01    1.10762599E-01 
   1.55841858E+01    2.42956276E-01 
S    2    1.000000
   6.20671385E+00    4.14402634E-01 
   2.57648965E+00    2.37449687E-01 
S    1    1.000000
   5.76963394E-01    1.00000000E+00 
S    1    1.000000
   2.29728314E-01    1.00000000E+00 
S    1    1.000000
   9.51644400E-02    1.00000000E+00 
S    1    1.000000
   4.84754014E-02    1.00000000E+00 
P    4    1.000000
   3.46972322E+01    5.33336578E-03 
   7.95826228E+00    3.58641091E-02 
   2.37808269E+00    1.42158733E-01 
   8.14332082E-01    3.42704718E-01 
P    1    1.000000
   2.88875473E-01    4.64458224E-01 
P    1    1.000000
   1.00568237E-01    2.49557899E-01 
D    1    1.000000
   1.09700000E+00    1.00000000E+00 
D    1    1.000000
   3.18000000E-01    1.00000000E+00 
F    1    1.000000
   7.61000000E-01    1.00000000E+00 
****
H    0
S    3    1.000000
   3.40613410E+01    6.02519780E-03 
   5.12357460E+00    4.50210940E-02 
   1.16466260E+00    2.01897260E-01 
S    1    1.000000
   3.27230410E-01    1.00000000E+00 
S    1    1.000000
   1.03072410E-01    1.00000000E+00 
P    1    1.000000
   8.00000000E-01    1.00000000E+00 
****
H    0
S    3    1.000000
   3.40613410E+01    6.02519780E-03 
   5.12357460E+00    4.50210940E-02 
   1.16466260E+00    2.01897260E-01 
S    1    1.000000
   3.27230410E-01    1.00000000E+00 
S    1    1.000000
   1.03072410E-01    1.00000000E+00 
P    1    1.000000
   8.00000000E-01    1.00000000E+00 
****
H    0
S    3    1.000000
   3.40613410E+01    6.02519780E-03 
   5.12357460E+00    4.50210940E-02 
   1.16466260E+00    2.01897260E-01 
S    1    1.000000
   3.27230410E-01    1.00000000E+00 
S    1    1.000000
   1.03072410E-01    1.00000000E+00 
P    1    1.000000
   8.00000000E-01    1.00000000E+00 
****
$end
-----------------------------------------------------------------------
 There are 351 shells and 873 basis functions

 Total QAlloc Memory Limit  64000 MB
 Mega-Array Size      1956 MB
 MEM_STATIC part      2000 MB

 User-specified dielectric constants (eps_0 = 78.39, eps_inf = 1.78)
 Using C-PCM dielectric factor f(eps) = (eps-1)/eps = 0.987243
 Static dielectric constant eps = 78.39
 Discretize the solute cavity surface with Lebedev spheres
	Using 110 Lebedev grid points for each H atom
	Using 194 Lebedev grid points for other atoms
	Atomic van der Waals radii (Bondi set) will be scaled by 1.20
 Using smooth SwiG surface discretization
 Remove points where switching function is < 1.0e-08
 Keep 2515 surface tesserae and discard 3681 interior tesserae
 Molecular Surface Area = 346.941 Angst**2

 A cutoff of  1.0D-12 yielded  42266 shell pairs
 There are    243856 function pairs (    307721 Cartesian)
 Smallest overlap matrix eigenvalue = 3.72E-06

 Scale SEOQF with 1.000000e-02/1.000000e-02/1.000000e-01

 Standard Electronic Orientation quadrupole field applied
 Nucleus-field energy     =    -0.0000000073 hartrees
 Guess from superposition of atomic densities
 Warning:  Energy on first SCF cycle will be non-variational
 SAD guess density has 172.000000 electrons

 -----------------------------------------------------------------------
  General SCF calculation program by
  Eric Jon Sundstrom, Paul Horn, Yuezhi Mao, Dmitri Zuev, Alec White,
  David Stuck, Shaama M.S., Shane Yost, Joonho Lee, David Small,
  Daniel Levine, Susi Lehtola, Hugh Burton, Evgeny Epifanovsky,
  Bang C. Huynh
 -----------------------------------------------------------------------
 Exchange:     0.1900 Hartree-Fock + 0.3500 B88 + 0.4600 muB88 + LR-HF
 Correlation:  0.1900 VWN5 + 0.8100 LYP
 Using SG-1 standard quadrature grid
 using 16 threads for integral computing
 -------------------------------------------------------
 OpenMP Integral computing Module                
 Release: version 1.0, May 2013, Q-Chem Inc. Pittsburgh 
 -------------------------------------------------------
 C-PCM solvent model [f = (eps-1)/eps], solve by matrix inversion
 DFT Correlation          Energy =  -6.99389421489212
 DFT Exchange             Energy = -106.74979350003682
 HF Exchange              Energy = -43.86534272794677
 One-Electron             Energy = -5554.00378699227713
 SCRF wf-dependent energy Energy =   0.00000000000000
 Total Coulomb            Energy = 2531.77443642610069
 Nuclear repulsion Energy = 1990.12825699547852
 A restricted SCF calculation will be
 performed using DIIS
 SCF converges when DIIS error is below 1.0e-08
 DFT Correlation          Energy =  -6.99389421489212
 DFT Exchange             Energy = -106.74979350003682
 HF Exchange              Energy = -43.86534272794677
 One-Electron             Energy = -5554.00378699227713
 SCRF wf-dependent energy Energy =   0.00000000000000
 Total Coulomb            Energy = 2531.77443642610069
 ---------------------------------------
  Cycle       Energy         DIIS error
 ---------------------------------------
 DFT Correlation          Energy =  -7.08504924345997
 DFT Exchange             Energy = -109.04541059666052
 HF Exchange              Energy = -42.41759265905536
 One-Electron             Energy = -5575.17704529337243
 SCRF wf-dependent energy Energy =  -1.43820730947550
 Total Coulomb            Energy = 2562.64021015381832
 Nuclear repulsion Energy = 1990.12825699547852
    1   -1189.7101240136      1.95e-02  
 DFT Correlation          Energy =  -7.02236366757161
 DFT Exchange             Energy = -107.20722727154244
 HF Exchange              Energy = -41.90405490982565
 One-Electron             Energy = -5563.31253698054752
 SCRF wf-dependent energy Energy =   1.04011316674860
 Total Coulomb            Energy = 2546.04870654418255
 Nuclear repulsion Energy = 1990.12825699547852
    2   -1182.3948379527      2.04e-03  
 DFT Correlation          Energy =  -7.05019859581796
 DFT Exchange             Energy = -108.08692229593615
 HF Exchange              Energy = -42.17174101676366
 One-Electron             Energy = -5565.37000257441559
 SCRF wf-dependent energy Energy =  -1.25565844422476
 Total Coulomb            Energy = 2551.10267030732120
 Nuclear repulsion Energy = 1990.12825699547852
    3   -1182.2291061231      2.63e-03  
 DFT Correlation          Energy =  -7.05286603000293
 DFT Exchange             Energy = -108.13763928229710
 HF Exchange              Energy = -42.18444065226954
 One-Electron             Energy = -5567.93088618616002
 SCRF wf-dependent energy Energy =  -0.64691725975626
 Total Coulomb            Energy = 2553.10382933044684
 Nuclear repulsion Energy = 1990.12825699547852
    4   -1182.7035956244      5.05e-04  
 DFT Correlation          Energy =  -7.05235415143400
 DFT Exchange             Energy = -108.12029330969060
 HF Exchange              Energy = -42.18087381605358
 One-Electron             Energy = -5567.79358649831647
 SCRF wf-dependent energy Energy =  -0.64706675070624
 Total Coulomb            Energy = 2552.94308705044477
 Nuclear repulsion Energy = 1990.12825699547852
    5   -1182.7206630846      1.78e-04  
 DFT Correlation          Energy =  -7.05209904603471
 DFT Exchange             Energy = -108.11870968332029
 HF Exchange              Energy = -42.18145635676879
 One-Electron             Energy = -5567.61309837767476
 SCRF wf-dependent energy Energy =  -0.67517512900804
 Total Coulomb            Energy = 2552.78916062752160
 Nuclear repulsion Energy = 1990.12825699547852
    6   -1182.7228304803      5.67e-05  
 DFT Correlation          Energy =  -7.05209568356488
 DFT Exchange             Energy = -108.11772725029707
 HF Exchange              Energy = -42.18148787664675
 One-Electron             Energy = -5567.64528971351228
 SCRF wf-dependent energy Energy =  -0.65931884987504
 Total Coulomb            Energy = 2552.80450227431129
 Nuclear repulsion Energy = 1990.12825699547852
    7   -1182.7231209698      1.54e-05  
 DFT Correlation          Energy =  -7.05216007352194
 DFT Exchange             Energy = -108.11945455337629
 HF Exchange              Energy = -42.18212101438883
 One-Electron             Energy = -5567.68615628298812
 SCRF wf-dependent energy Energy =  -0.65196006217957
 Total Coulomb            Energy = 2552.84042105380922
 Nuclear repulsion Energy = 1990.12825699547852
    8   -1182.7231601041      7.03e-06  
 DFT Correlation          Energy =  -7.05215422266815
 DFT Exchange             Energy = -108.11936271377958
 HF Exchange              Energy = -42.18220852923774
 One-Electron             Energy = -5567.69497552778466
 SCRF wf-dependent energy Energy =  -0.64589992481297
 Total Coulomb            Energy = 2552.84316463183541
 Nuclear repulsion Energy = 1990.12825699547852
    9   -1182.7231739372      3.60e-06  
 DFT Correlation          Energy =  -7.05214853795793
 DFT Exchange             Energy = -108.11919399933788
 HF Exchange              Energy = -42.18219015858437
 One-Electron             Energy = -5567.69485197661652
 SCRF wf-dependent energy Energy =  -0.64472082698990
 Total Coulomb            Energy = 2552.84166836624809
 Nuclear repulsion Energy = 1990.12825699547852
   10   -1182.7231792910      1.60e-06  
 DFT Correlation          Energy =  -7.05215386008982
 DFT Exchange             Energy = -108.11935629675152
 HF Exchange              Energy = -42.18223472371413
 One-Electron             Energy = -5567.70042011183705
 SCRF wf-dependent energy Energy =  -0.64303380873207
 Total Coulomb            Energy = 2552.84576147041662
 Nuclear repulsion Energy = 1990.12825699547852
   11   -1182.7231801378      6.61e-07  
 DFT Correlation          Energy =  -7.05215465795042
 DFT Exchange             Energy = -108.11935047432702
 HF Exchange              Energy = -42.18223353499738
 One-Electron             Energy = -5567.70153077179930
 SCRF wf-dependent energy Energy =  -0.64259582594059
 Total Coulomb            Energy = 2552.84642789814689
 Nuclear repulsion Energy = 1990.12825699547852
   12   -1182.7231803352      3.87e-07  
 DFT Correlation          Energy =  -7.05215427848821
 DFT Exchange             Energy = -108.11935367643146
 HF Exchange              Energy = -42.18223340917557
 One-Electron             Energy = -5567.70153427156038
 SCRF wf-dependent energy Energy =  -0.64250613954027
 Total Coulomb            Energy = 2552.84634440391255
 Nuclear repulsion Energy = 1990.12825699547852
   13   -1182.7231803714      1.33e-07  
 DFT Correlation          Energy =  -7.05215427312250
 DFT Exchange             Energy = -108.11935023851701
 HF Exchange              Energy = -42.18223212764968
 One-Electron             Energy = -5567.70158144326706
 SCRF wf-dependent energy Energy =  -0.64247486884574
 Total Coulomb            Energy = 2552.84635558021910
 Nuclear repulsion Energy = 1990.12825699547852
   14   -1182.7231803758      4.46e-08  
 DFT Correlation          Energy =  -7.05215434217864
 DFT Exchange             Energy = -108.11935246474482
 HF Exchange              Energy = -42.18223266537770
 One-Electron             Energy = -5567.70164410566395
 SCRF wf-dependent energy Energy =  -0.64246112921114
 Total Coulomb            Energy = 2552.84640733614742
 Nuclear repulsion Energy = 1990.12825699547852
   15   -1182.7231803757      2.06e-08  
   16   -1182.7231803756      4.83e-09  Convergence criterion met
 ---------------------------------------
 DFT Correlation          Energy =  -7.05215434217864
 DFT Exchange             Energy = -108.11935246474482
 HF Exchange              Energy = -42.18223266537770
 One-Electron             Energy = -5567.70164410566395
 SCRF wf-dependent energy Energy =  -0.64246112921114
 Total Coulomb            Energy = 2552.84640733614742
 Final Alpha MO Eigenvalues
            1           2           3           4           5           6
    1 -19.2934098 -19.2465101 -19.2453567 -19.2432668 -19.2414639 -19.2376210
            7           8           9          10          11          12
    1 -19.1541416 -10.3578765 -10.3452416 -10.3370039 -10.3364208 -10.3216226
           13          14          15          16          17          18
    1 -10.3207276 -10.3206244 -10.3204585 -10.2995492 -10.2951142 -10.2923003
           19          20          21          22          23          24
    1 -10.2852165 -10.2813554 -10.2576384 -10.2568463 -10.2456609 -10.2365181
           25          26          27          28          29          30
    1  -1.2203249  -1.1737051  -1.1616284  -1.1594766  -1.1547400  -1.1373464
           31          32          33          34          35          36
    1  -1.0772704  -0.9661185  -0.9527633  -0.9205492  -0.8784303  -0.8504134
           37          38          39          40          41          42
    1  -0.8420904  -0.8253173  -0.7966931  -0.7804052  -0.7604371  -0.7485158
           43          44          45          46          47          48
    1  -0.7131817  -0.7065369  -0.6791878  -0.6492434  -0.6454829  -0.6329033
           49          50          51          52          53          54
    1  -0.6260401  -0.6038168  -0.5933317  -0.5837261  -0.5782272  -0.5718128
           55          56          57          58          59          60
    1  -0.5665601  -0.5554508  -0.5434302  -0.5418405  -0.5372739  -0.5268509
           61          62          63          64          65          66
    1  -0.5114359  -0.5058138  -0.5038805  -0.4948734  -0.4908640  -0.4893629
           67          68          69          70          71          72
    1  -0.4849780  -0.4758046  -0.4664757  -0.4646454  -0.4522714  -0.4453369
           73          74          75          76          77          78
    1  -0.4373455  -0.4355527  -0.4241498  -0.4204533  -0.4161145  -0.4075185
           79          80          81          82          83          84
    1  -0.4041482  -0.3881406  -0.3497442  -0.3142427  -0.3057052  -0.2929573
           85          86          87          88          89          90
    1  -0.2867676  -0.2470984  -0.0684336   0.0099824   0.0264155   0.0314346
           91          92          93          94          95          96
    1   0.0381758   0.0412516   0.0441021   0.0466756   0.0519715   0.0592311
           97          98          99         100         101         102
    1   0.0614640   0.0664722   0.0710562   0.0749488   0.0792354   0.0879050
          103         104         105         106         107         108
    1   0.0900546   0.0931190   0.1002126   0.1028736   0.1065012   0.1089911
          109         110         111         112         113         114
    1   0.1119094   0.1147223   0.1203668   0.1272047   0.1311704   0.1367780
          115         116         117         118         119         120
    1   0.1427292   0.1476537   0.1483168   0.1519905   0.1532700   0.1587426
          121         122         123         124         125         126
    1   0.1650124   0.1677475   0.1769502   0.1859238   0.1885248   0.1904918
          127         128         129         130         131         132
    1   0.1931320   0.1979318   0.1984669   0.2036569   0.2120715   0.2153115
          133         134         135         136         137         138
    1   0.2177415   0.2233254   0.2291365   0.2315357   0.2339529   0.2394594
          139         140         141         142         143         144
    1   0.2402337   0.2433279   0.2442543   0.2500442   0.2553139   0.2604148
          145         146         147         148         149         150
    1   0.2639910   0.2678692   0.2731398   0.2781117   0.2839392   0.2856992
          151         152         153         154         155         156
    1   0.2865943   0.2923175   0.2957787   0.2998415   0.3038039   0.3103240
          157         158         159         160         161         162
    1   0.3107194   0.3137003   0.3164401   0.3216613   0.3235016   0.3264917
          163         164         165         166         167         168
    1   0.3343712   0.3376452   0.3404157   0.3466365   0.3522697   0.3574870
          169         170         171         172         173         174
    1   0.3585254   0.3619181   0.3648859   0.3677156   0.3738912   0.3785011
          175         176         177         178         179         180
    1   0.3792833   0.3828305   0.3869453   0.3882257   0.3934671   0.3997114
          181         182         183         184         185         186
    1   0.4012044   0.4042243   0.4105178   0.4144303   0.4248551   0.4273382
          187         188         189         190         191         192
    1   0.4329557   0.4353996   0.4420044   0.4492649   0.4513580   0.4549803
          193         194         195         196         197         198
    1   0.4578862   0.4609027   0.4614151   0.4649265   0.4674492   0.4729015
          199         200         201         202         203         204
    1   0.4755089   0.4788346   0.4803497   0.4871079   0.4933871   0.4939620
          205         206         207         208         209         210
    1   0.4955117   0.5011209   0.5088598   0.5110025   0.5160242   0.5204222
          211         212         213         214         215         216
    1   0.5244345   0.5269138   0.5296950   0.5344244   0.5370632   0.5470704
          217         218         219         220         221         222
    1   0.5570284   0.5593655   0.5623924   0.5701051   0.5712434   0.5760339
          223         224         225         226         227         228
    1   0.5827700   0.5864003   0.5881463   0.5926896   0.6004698   0.6095312
          229         230         231         232         233         234
    1   0.6113482   0.6196083   0.6244736   0.6338356   0.6386408   0.6415566
          235         236         237         238         239         240
    1   0.6465258   0.6495632   0.6537883   0.6587467   0.6641905   0.6655104
          241         242         243         244         245         246
    1   0.6669438   0.6686971   0.6718331   0.6778233   0.6892338   0.6913516
          247         248         249         250         251         252
    1   0.7003663   0.7057422   0.7117299   0.7185478   0.7230860   0.7260883
          253         254         255         256         257         258
    1   0.7323770   0.7368487   0.7452350   0.7468001   0.7527556   0.7603459
          259         260         261         262         263         264
    1   0.7665310   0.7680044   0.7722157   0.7740106   0.7760270   0.7840649
          265         266         267         268         269         270
    1   0.7905274   0.7919934   0.7969060   0.8001332   0.8092505   0.8120594
          271         272         273         274         275         276
    1   0.8153388   0.8181830   0.8226180   0.8354003   0.8382237   0.8412776
          277         278         279         280         281         282
    1   0.8461651   0.8484391   0.8577035   0.8595995   0.8722327   0.8762904
          283         284         285         286         287         288
    1   0.8891037   0.8920859   0.9045951   0.9051685   0.9110308   0.9158179
          289         290         291         292         293         294
    1   0.9211262   0.9280364   0.9359018   0.9405840   0.9471796   0.9526988
          295         296         297         298         299         300
    1   0.9728660   0.9854862   0.9880429   0.9961714   1.0061739   1.0159324
          301         302         303         304         305         306
    1   1.0315867   1.0399591   1.0437103   1.0507649   1.0542678   1.0657558
          307         308         309         310         311         312
    1   1.0666300   1.0727508   1.0816701   1.0896739   1.0942567   1.1026578
          313         314         315         316         317         318
    1   1.1174262   1.1195127   1.1273159   1.1292958   1.1347319   1.1448665
          319         320         321         322         323         324
    1   1.1527678   1.1686785   1.1717048   1.1869628   1.1897436   1.1939692
          325         326         327         328         329         330
    1   1.1979419   1.2071984   1.2076733   1.2121714   1.2185880   1.2227602
          331         332         333         334         335         336
    1   1.2313037   1.2411097   1.2527438   1.2674051   1.2793184   1.2838768
          337         338         339         340         341         342
    1   1.2905037   1.2959434   1.3043221   1.3127843   1.3146391   1.3284766
          343         344         345         346         347         348
    1   1.3450573   1.3514693   1.3589557   1.3718958   1.3890841   1.3956282
          349         350         351         352         353         354
    1   1.3991051   1.4123262   1.4187791   1.4219493   1.4403513   1.4486868
          355         356         357         358         359         360
    1   1.4590038   1.4669830   1.4803834   1.4890684   1.4969765   1.5039202
          361         362         363         364         365         366
    1   1.5070690   1.5097610   1.5135945   1.5266687   1.5304288   1.5473840
          367         368         369         370         371         372
    1   1.5518445   1.5589225   1.5627443   1.5743718   1.5807132   1.5816382
          373         374         375         376         377         378
    1   1.5836609   1.5883924   1.5961012   1.5988813   1.6073889   1.6156029
          379         380         381         382         383         384
    1   1.6181958   1.6250353   1.6408558   1.6450553   1.6530931   1.6570736
          385         386         387         388         389         390
    1   1.6633567   1.6727526   1.6858973   1.6985258   1.7026498   1.7069046
          391         392         393         394         395         396
    1   1.7118044   1.7172465   1.7264095   1.7302500   1.7393082   1.7418714
          397         398         399         400         401         402
    1   1.7453701   1.7519873   1.7602334   1.7757961   1.7784092   1.7873783
          403         404         405         406         407         408
    1   1.7969731   1.8056272   1.8143368   1.8227316   1.8339440   1.8410627
          409         410         411         412         413         414
    1   1.8460665   1.8493950   1.8699671   1.8793656   1.8838379   1.9103391
          415         416         417         418         419         420
    1   1.9130579   1.9244119   1.9289310   1.9446906   1.9530425   1.9562223
          421         422         423         424         425         426
    1   1.9575338   1.9724821   1.9857412   1.9926994   2.0015637   2.0074230
          427         428         429         430         431         432
    1   2.0238467   2.0291235   2.0347019   2.0398687   2.0519021   2.0599555
          433         434         435         436         437         438
    1   2.0672918   2.0728935   2.0827000   2.0854742   2.0926133   2.0936388
          439         440         441         442         443         444
    1   2.1086832   2.1102559   2.1293357   2.1391346   2.1417162   2.1452899
          445         446         447         448         449         450
    1   2.1607407   2.1687356   2.1792264   2.1848687   2.1901764   2.1937184
          451         452         453         454         455         456
    1   2.2013051   2.2084939   2.2130013   2.2328596   2.2361707   2.2400210
          457         458         459         460         461         462
    1   2.2431652   2.2526298   2.2547503   2.2690670   2.2761917   2.2871273
          463         464         465         466         467         468
    1   2.2882657   2.3025691   2.3270674   2.3401669   2.3484764   2.3503571
          469         470         471         472         473         474
    1   2.3535426   2.3578348   2.3636692   2.3696463   2.3757635   2.3913458
          475         476         477         478         479         480
    1   2.3985957   2.4202664   2.4274392   2.4409541   2.4499344   2.4586477
          481         482         483         484         485         486
    1   2.4667762   2.4674461   2.4773571   2.4890460   2.4971283   2.5076465
          487         488         489         490         491         492
    1   2.5146657   2.5238610   2.5445940   2.5496414   2.5514251   2.5618086
          493         494         495         496         497         498
    1   2.5746862   2.5811571   2.5902505   2.5924556   2.5981258   2.6038358
          499         500         501         502         503         504
    1   2.6075548   2.6085116   2.6301171   2.6387634   2.6537680   2.6585655
          505         506         507         508         509         510
    1   2.6785253   2.6849506   2.6901000   2.6973467   2.6990821   2.7091960
          511         512         513         514         515         516
    1   2.7155764   2.7184574   2.7300477   2.7354716   2.7443826   2.7527574
          517         518         519         520         521         522
    1   2.7548075   2.7722412   2.7768177   2.7927254   2.7983767   2.8018615
          523         524         525         526         527         528
    1   2.8131564   2.8165617   2.8214980   2.8235686   2.8473472   2.8507757
          529         530         531         532         533         534
    1   2.8544966   2.8610169   2.8670797   2.8750115   2.8788901   2.8843215
          535         536         537         538         539         540
    1   2.8905534   2.8953505   2.9050864   2.9086795   2.9148432   2.9184701
          541         542         543         544         545         546
    1   2.9341689   2.9421730   2.9443102   2.9508717   2.9598343   2.9634375
          547         548         549         550         551         552
    1   2.9823316   2.9874195   2.9924910   3.0008650   3.0078781   3.0080368
          553         554         555         556         557         558
    1   3.0157728   3.0205315   3.0245748   3.0315195   3.0350978   3.0377863
          559         560         561         562         563         564
    1   3.0661109   3.0721272   3.0782521   3.0802911   3.0809288   3.0855842
          565         566         567         568         569         570
    1   3.1090375   3.1167828   3.1231152   3.1340191   3.1437312   3.1483098
          571         572         573         574         575         576
    1   3.1552549   3.1553892   3.1638501   3.1712141   3.1869341   3.1928703
          577         578         579         580         581         582
    1   3.1974887   3.2097915   3.2149018   3.2167353   3.2225851   3.2236330
          583         584         585         586         587         588
    1   3.2320255   3.2371431   3.2413944   3.2480789   3.2517151   3.2603250
          589         590         591         592         593         594
    1   3.2645313   3.2780604   3.2787888   3.2822731   3.2883903   3.2927788
          595         596         597         598         599         600
    1   3.3060320   3.3132540   3.3160805   3.3262436   3.3305303   3.3367832
          601         602         603         604         605         606
    1   3.3487523   3.3535886   3.3566460   3.3635174   3.3699320   3.3744091
          607         608         609         610         611         612
    1   3.3772708   3.3922433   3.3980261   3.4020324   3.4070081   3.4122209
          613         614         615         616         617         618
    1   3.4169702   3.4271891   3.4295785   3.4459329   3.4490427   3.4498003
          619         620         621         622         623         624
    1   3.4511955   3.4628923   3.4705753   3.4768185   3.4810415   3.4829166
          625         626         627         628         629         630
    1   3.4959338   3.4967648   3.4997391   3.5104522   3.5105659   3.5147980
          631         632         633         634         635         636
    1   3.5213012   3.5339755   3.5387713   3.5460341   3.5532660   3.5741735
          637         638         639         640         641         642
    1   3.5765336   3.5779757   3.5851283   3.6013575   3.6053732   3.6066709
          643         644         645         646         647         648
    1   3.6191401   3.6213755   3.6249383   3.6387835   3.6437555   3.6525751
          649         650         651         652         653         654
    1   3.6615042   3.6686828   3.6757301   3.6851544   3.7001624   3.7099525
          655         656         657         658         659         660
    1   3.7118821   3.7233426   3.7411762   3.7523772   3.7610728   3.7627324
          661         662         663         664         665         666
    1   3.7722128   3.7885240   3.8053980   3.8147882   3.8220729   3.8559899
          667         668         669         670         671         672
    1   3.8649244   3.8722893   3.8881195   3.8913454   3.8976368   3.9290356
          673         674         675         676         677         678
    1   3.9498544   3.9538682   3.9684848   3.9949378   4.0279228   4.0382144
          679         680         681         682         683         684
    1   4.0408659   4.0518742   4.0686178   4.0780541   4.0947963   4.1053862
          685         686         687         688         689         690
    1   4.1247115   4.1313911   4.1422462   4.1608171   4.1719282   4.1944725
          691         692         693         694         695         696
    1   4.2059171   4.2142291   4.2226459   4.2312103   4.2338918   4.2385593
          697         698         699         700         701         702
    1   4.2447037   4.2508557   4.2791406   4.2860432   4.2923076   4.2928049
          703         704         705         706         707         708
    1   4.2956902   4.3146104   4.3336172   4.3420085   4.3654900   4.3693779
          709         710         711         712         713         714
    1   4.3833737   4.4079965   4.4296319   4.4414580   4.4470549   4.4631932
          715         716         717         718         719         720
    1   4.4880837   4.4922241   4.4924762   4.5066125   4.5242274   4.5506587
          721         722         723         724         725         726
    1   4.5521619   4.5578166   4.5958425   4.6063853   4.6186766   4.6337785
          727         728         729         730         731         732
    1   4.6535645   4.6625267   4.6677555   4.6812785   4.6915754   4.7008998
          733         734         735         736         737         738
    1   4.7167662   4.7373838   4.7800308   4.8198155   4.8356630   4.8635494
          739         740         741         742         743         744
    1   4.8861965   4.8961979   4.9313012   4.9443749   4.9554663   4.9879908
          745         746         747         748         749         750
    1   4.9991437   5.0242825   5.0833204   5.0952681   5.0995575   5.1471778
          751         752         753         754         755         756
    1   5.1752589   5.1962739   5.2141016   5.2243087   5.2755672   5.2948283
          757         758         759         760         761         762
    1   5.2957209   5.2974633   5.3166764   5.3208853   5.3300163   5.3638370
          763         764         765         766         767         768
    1   5.3716788   5.3827218   5.3910707   5.4120799   5.4326181   5.4643086
          769         770         771         772         773         774
    1   5.4763153   5.5079435   5.5202158   5.5364602   5.5498083   5.5537375
          775         776         777         778         779         780
    1   5.5727101   5.5883448   5.5924954   5.6309082   5.6396111   5.6781302
          781         782         783         784         785         786
    1   5.7153338   5.7220475   5.7592516   5.7786610   5.8019062   5.8186447
          787         788         789         790         791         792
    1   5.8356675   5.8478594   5.8621059   5.8819974   5.9560876   5.9648107
          793         794         795         796         797         798
    1   6.0299055   6.0520970   6.0585554   6.0715059   6.0912447   6.1151838
          799         800         801         802         803         804
    1   6.1650034   6.1887096   6.2273699   6.2918010   6.4004794   6.4046901
          805         806         807         808         809         810
    1   6.4421418   6.4590490   6.4660798   6.4738458   6.4828493   6.4841206
          811         812         813         814         815         816
    1   6.4854264   6.5172670   6.5231864   6.5963810   6.6344833   6.6631645
          817         818         819         820         821         822
    1   6.6829212   6.6968103   6.7103737   6.7372741   6.7784926   6.7870772
          823         824         825         826         827         828
    1   6.7877829   6.7921517   6.9046949   6.9079996   6.9216529   6.9234058
          829         830         831         832         833         834
    1   6.9338481   6.9401938   6.9520299   6.9583671   6.9853441   6.9960143
          835         836         837         838         839         840
    1   7.0487597   7.1291184   7.1514548   7.1664337   7.1705416   7.2353696
          841         842         843         844         845         846
    1   7.2777194   7.2825479   7.4016600   7.4092614   7.4215707   7.5105632
          847         848         849         850         851         852
    1   7.5564734   7.5731080   7.5918659  22.4501515  22.4734672  22.5063067
          853         854         855         856         857         858
    1  22.6355552  22.7986899  22.8677705  22.9002502  22.9385435  23.0117169
          859         860         861         862         863         864
    1  23.0418732  23.0735815  23.1317549  23.1616444  23.2158604  23.3988658
          865         866         867         868         869         870
    1  23.6329650  23.7092891  44.0981422  44.1237926  44.1605133  44.1860267
          871         872         873
    1  44.4030803  44.4400315  44.7239429
 SCF time:   CPU 7210.68s  wall 653.00s 
 DFT Correlation          Energy =  -7.05215434217864
 DFT Exchange             Energy = -108.11935246474482
 HF Exchange              Energy = -42.18223266537770
 One-Electron             Energy = -5567.70164410566395
 SCRF wf-dependent energy Energy =  -0.64246112921114
 Total Coulomb            Energy = 2552.84640733614742
 Nuclear repulsion Energy = 1990.12825699547852

************** Final PCM Free Energy Summary **************
 G_electrostatic  =      -0.05520967 hartree =     -34.64459190 kcal/mol
 G_cavitation     =       0.00000000 hartree =       0.00000000 kcal/mol
 G_dispersion     =       0.00000000 hartree =       0.00000000 kcal/mol
 G_repulsion      =       0.00000000 hartree =       0.00000000 kcal/mol
 --------------------------------------------------
 Non-electrostatic Free Energy =       0.00000000 hartree =       0.00000000 kcal/mol
 Total                         =      -0.05520967 hartree =     -34.64459190 kcal/mol
 --------------------------------------------------
 SCF Energy (H0 + V/2)                       =   -1182.72318038 
 Solute Internal Energy (H0)                 =   -1182.66797070 
 Total Free Energy (H0 + V/2 + non-elec)     =   -1182.72318038 hartree
                                             = -742170.00087965 kcal/mol
***********************************************************

 SCF   energy = -1182.72318038
 Total energy = -1182.72318038
 MAX_CIS_SUBSPACE fits in available memory
 Direct TDDFT/TDA calculation will be performed
 Exchange:     0.1900 Hartree-Fock + 0.3500 B88 + 0.4600 muB88 + LR-HF
 Correlation:  0.1900 VWN5 + 0.8100 LYP
 Using SG-1 standard quadrature grid
 Triplet excitation energies requested
 Singlet excitation energies requested
 Adding PCM contribution to the XC response (LR-PCM)
 Optical dielectric constant (eps_inf) =  1.78
 CIS energy converged when residual is below 10e- 6
 ---------------------------------------------------
 Iter    Rts Conv    Rts Left    Ttl Dev     Max Dev
 ---------------------------------------------------
   1         0           7      0.000836    0.000135
   2         0           7      0.000312    0.000058
   3         0           7      0.000154    0.000043
   4         0           7      0.000153    0.000097
   5         1           6      0.000087    0.000059
   6         5           2      0.000064    0.000048
   7         5           2      0.000035    0.000026
   8         5           2      0.000013    0.000008
   9         6           1      0.000007    0.000003
  10         6           1      0.000004    0.000002
  11         7           0      0.000003    0.000001    Roots Converged
 ---------------------------------------------------
 Triplets done: starting singlet calculation
 ---------------------------------------------------
 Iter    Rts Conv    Rts Left    Ttl Dev     Max Dev
 ---------------------------------------------------
  12         0           7      0.001824    0.000473
  13         0           7      0.000500    0.000110
  14         0           7      0.000264    0.000067
  15         0           7      0.000143    0.000043
  16         0           7      0.000071    0.000033
  17         1           6      0.000039    0.000020
  18         3           4      0.000017    0.000008
  19         5           2      0.000011    0.000005
  20         5           2      0.000007    0.000002
  21         6           1      0.000005    0.000002
  22         6           1      0.000004    0.000001
  23         7           0      0.000004    0.000001    Roots Converged
 ---------------------------------------------------
 
 ---------------------------------------------------
         TDDFT/TDA Excitation Energies              
 ---------------------------------------------------

 Excited state   1: excitation energy (eV) =       1.5854
 Total energy for state   1:                 -1182.66491750 au
    Multiplicity: Triplet
    Trans. Mom.:  0.0000 X   0.0000 Y   0.0000 Z
    Strength   :     0.0000000000
    D(   81) --> V(    1) amplitude =  0.1083
    D(   85) --> V(    1) amplitude =  0.1833
    D(   85) --> V(    2) amplitude =  0.0974
    D(   86) --> V(    1) amplitude =  0.9546

 Excited state   2: excitation energy (eV) =       2.7422
 Total energy for state   2:                 -1182.62240599 au
    Multiplicity: Singlet
    Trans. Mom.: -2.3330 X  -2.6824 Y  -0.0935 Z
    Strength   :     0.8496774099
    D(   83) --> V(    1) amplitude =  0.1420
    D(   85) --> V(    1) amplitude =  0.1624
    D(   86) --> V(    1) amplitude =  0.9576

 Excited state   3: excitation energy (eV) =       2.8574
 Total energy for state   3:                 -1182.61817254 au
    Multiplicity: Triplet
    Trans. Mom.:  0.0000 X   0.0000 Y   0.0000 Z
    Strength   :     0.0000000000
    D(   81) --> V(    1) amplitude = -0.1353
    D(   83) --> V(    1) amplitude =  0.2259
    D(   83) --> V(    2) amplitude =  0.0984
    D(   83) --> V(    6) amplitude = -0.0762
    D(   85) --> V(    1) amplitude =  0.8018
    D(   85) --> V(    6) amplitude =  0.1005
    D(   85) --> V(    8) amplitude =  0.0933
    D(   85) --> V(   12) amplitude =  0.0869
    D(   86) --> V(    1) amplitude = -0.1216
    D(   86) --> V(    2) amplitude =  0.4297

 Excited state   4: excitation energy (eV) =       3.1055
 Total energy for state   4:                 -1182.60905464 au
    Multiplicity: Triplet
    Trans. Mom.:  0.0000 X   0.0000 Y   0.0000 Z
    Strength   :     0.0000000000
    D(   79) --> V(    1) amplitude =  0.0972
    D(   81) --> V(    1) amplitude =  0.1463
    D(   83) --> V(    1) amplitude =  0.8683
    D(   83) --> V(    2) amplitude =  0.1062
    D(   83) --> V(    6) amplitude = -0.1773
    D(   83) --> V(    8) amplitude = -0.1407
    D(   83) --> V(   12) amplitude =  0.0725
    D(   85) --> V(    1) amplitude = -0.0820
    D(   85) --> V(    2) amplitude =  0.0757
    D(   85) --> V(    6) amplitude = -0.0796
    D(   86) --> V(    2) amplitude = -0.2596
    D(   86) --> V(    6) amplitude =  0.0849

 Excited state   5: excitation energy (eV) =       3.3919
 Total energy for state   5:                 -1182.59852958 au
    Multiplicity: Triplet
    Trans. Mom.:  0.0000 X   0.0000 Y   0.0000 Z
    Strength   :     0.0000000000
    D(   76) --> V(    1) amplitude =  0.0716
    D(   84) --> V(    1) amplitude =  0.9025
    D(   84) --> V(    2) amplitude = -0.3291
[...]
      XZZZ     532.0036   YZZZ    -712.0040   ZZZZ   -1292.3967
    5th-Order Moments (Debye-Ang^4)
       500    5899.6671    410  -10987.6789    320   -5705.3949
       230  -12702.5844    140   -8134.1891    050  -69462.4081
       401     132.5452    311    1666.3564    221    -513.2323
       131    1918.4831    041    -982.5347    302    1291.5519
       212   -1866.9930    122   -2280.9844    032   -9782.2668
       203    -969.1240    113     826.4660    023   -3787.9999
       104     916.0281    014   -3674.3044    005   -1968.8567
 -----------------------------------------------------------------
 -----------------------------------------------------------------
                 RPA Excited-State Multipoles, State    4   
                  LMN = < X^L Y^M Z^N >
 -----------------------------------------------------------------
    Charge (ESU x 10^10)
                 0.0000
    Dipole Moment (Debye)
         X      -6.4511      Y       6.5152      Z       7.4056
       Tot      11.7859
    Quadrupole Moments (Debye-Ang)
        XX    -106.1232     XY     -22.3218     YY    -119.8139
        XZ     -26.1692     YZ      13.5697     ZZ    -129.4768
    Octopole Moments (Debye-Ang^2)
       XXX     -80.0620    XXY    -386.5449    XYY      41.8882
       YYY    -640.4579    XXZ      58.2751    XYZ      26.7188
       YYZ     139.5114    XZZ      46.5599    YZZ    -285.4254
       ZZZ    -134.8394
    Hexadecapole Moments (Debye-Ang^3)
      XXXX   -4744.1555   XXXY   -1536.1646   XXYY   -2946.2791
      XYYY   -1584.2069   YYYY   -8502.2677   XXXZ     161.1625
      XXYZ    -219.1038   XYYZ     154.3369   YYYZ     186.5509
      XXZZ   -1064.7219   XYZZ    -624.1499   YYZZ   -1854.7753
      XZZZ     517.4039   YZZZ    -707.6391   ZZZZ   -1284.4410
    5th-Order Moments (Debye-Ang^4)
       500    3685.3461    410  -11500.7771    320   -6191.3954
       230  -13322.0695    140   -9474.7343    050  -72550.2228
       401     511.8394    311    1691.5491    221    -483.4262
       131    1846.8721    041   -1109.4544    302    1128.4253
       212   -1890.5819    122   -2343.2796    032   -9836.8678
       203    -908.0882    113     814.9474    023   -3776.0612
       104     881.1922    014   -3669.6246    005   -1948.8493
 -----------------------------------------------------------------
 -----------------------------------------------------------------
                 RPA Excited-State Multipoles, State    5   
                  LMN = < X^L Y^M Z^N >
 -----------------------------------------------------------------
    Charge (ESU x 10^10)
                 0.0000
    Dipole Moment (Debye)
         X       5.8240      Y      17.5869      Z       6.2180
       Tot      19.5418
    Quadrupole Moments (Debye-Ang)
        XX    -131.0859     XY     -13.9237     YY     -78.7217
        XZ     -21.8941     YZ      16.6167     ZZ    -129.2505
    Octopole Moments (Debye-Ang^2)
       XXX      73.0817    XXY    -345.7333    XYY     111.0004
       YYY    -393.2533    XXZ      30.6969    XYZ      30.5532
       YYZ     170.3326    XZZ      65.5937    YZZ    -269.6183
       ZZZ    -138.7879
    Hexadecapole Moments (Debye-Ang^3)
      XXXX   -5291.8050   XXXY   -1593.5487   XXYY   -2954.5249
      XYYY   -1358.9703   YYYY   -7143.5751   XXXZ     239.1022
      XXYZ    -226.8955   XYYZ     204.0740   YYYZ     411.5237
      XXZZ   -1095.7325   XYZZ    -597.0177   YYZZ   -1788.3021
      XZZZ     531.9910   YZZZ    -703.1326   ZZZZ   -1284.8830
    5th-Order Moments (Debye-Ang^4)
       500    6547.5142    410  -11087.2958    320   -6020.0483
       230  -13180.8606    140   -8130.5196    050  -64131.4007
       401     -57.9352    311    1622.2043    221    -483.5430
       131    2212.6069    041     450.6704    302    1386.4305
       212   -1817.6990    122   -2177.7456    032   -9427.2124
       203    -996.2736    113     832.2094    023   -3710.7764
       104     947.4580    014   -3624.2632    005   -1964.6982
 -----------------------------------------------------------------
 -----------------------------------------------------------------
                 RPA Excited-State Multipoles, State    6   
                  LMN = < X^L Y^M Z^N >
 -----------------------------------------------------------------
    Charge (ESU x 10^10)
                 0.0000
    Dipole Moment (Debye)
         X      -0.9747      Y      11.7300      Z       7.0082
       Tot      13.6988
    Quadrupole Moments (Debye-Ang)
        XX    -126.0376     XY     -25.2922     YY    -103.3653
        XZ     -22.9684     YZ      17.7978     ZZ    -128.6547
    Octopole Moments (Debye-Ang^2)
       XXX      36.5090    XXY    -344.4384    XYY      64.8104
       YYY    -556.3286    XXZ      41.3487    XYZ      17.8239
       YYZ     147.0376    XZZ      50.8130    YZZ    -278.2289
       ZZZ    -134.6041
    Hexadecapole Moments (Debye-Ang^3)
      XXXX   -5220.9968   XXXY   -1604.2783   XXYY   -2879.9807
      XYYY   -1471.2673   YYYY   -8057.2320   XXXZ     236.8975
      XXYZ    -192.3774   XYYZ     155.7099   YYYZ     238.2148
      XXZZ   -1085.0479   XYZZ    -631.2073   YYZZ   -1832.2013
      XZZZ     523.5108   YZZZ    -694.9843   ZZZZ   -1279.2074
    5th-Order Moments (Debye-Ang^4)
       500    6217.7521    410  -10898.9990    320   -5912.9365
       230  -12840.2577    140   -8725.2687    050  -70014.5519
       401     105.1521    311    1583.2980    221    -488.0029
       131    1828.7344    041    -864.7449    302    1270.5653
       212   -1839.1108    122   -2334.4197    032   -9728.0276
       203    -952.3086    113     787.7909    023   -3745.5940
       104     888.0090    014   -3638.9710    005   -1936.8613
 -----------------------------------------------------------------
 -----------------------------------------------------------------
                 RPA Excited-State Multipoles, State    7   
                  LMN = < X^L Y^M Z^N >
 -----------------------------------------------------------------
    Charge (ESU x 10^10)
                 0.0000
    Dipole Moment (Debye)
         X      -1.2990      Y       9.5549      Z       5.9498
       Tot      11.3307
    Quadrupole Moments (Debye-Ang)
        XX    -114.6886     XY     -11.9995     YY    -107.9284
        XZ     -22.0744     YZ       9.9369     ZZ    -132.4306
    Octopole Moments (Debye-Ang^2)
       XXX     -19.2619    XXY    -366.1410    XYY     114.0623
       YYY    -532.1077    XXZ      48.0220    XYZ      39.7854
       YYZ     138.5980    XZZ      57.4105    YZZ    -287.8260
       ZZZ    -141.4739
    Hexadecapole Moments (Debye-Ang^3)
      XXXX   -4878.6037   XXXY   -1462.8174   XXYY   -2893.3127
      XYYY   -1299.5720   YYYY   -7901.0068   XXXZ     188.7671
      XXYZ    -249.9575   XYYZ     181.8935   YYYZ     193.0528
      XXZZ   -1089.9212   XYZZ    -605.2590   YYZZ   -1862.1280
      XZZZ     535.2704   YZZZ    -723.7447   ZZZZ   -1302.5833
    5th-Order Moments (Debye-Ang^4)
       500    4527.1877    410  -11264.9575    320   -5584.5371
       230  -12678.7571    140   -7760.9385    050  -68577.3978
       401     418.7134    311    1777.0442    221    -528.2863
       131    2001.3980    041    -875.1530    302    1222.4472
       212   -1907.7689    122   -2242.9252    032   -9772.1817
       203    -954.3125    113     866.8980    023   -3794.9215
       104     935.5218    014   -3696.9772    005   -1994.4390
 -----------------------------------------------------------------
 -----------------------------------------------------------------
                 RPA Excited-State Multipoles, State    8   
                  LMN = < X^L Y^M Z^N >
 -----------------------------------------------------------------
    Charge (ESU x 10^10)
                 0.0000
    Dipole Moment (Debye)
         X      -5.0105      Y      -1.4570      Z       2.0126
       Tot       5.5927
    Quadrupole Moments (Debye-Ang)
        XX    -122.7788     XY      -6.3025     YY    -109.2243
        XZ     -10.0319     YZ      21.3340     ZZ    -129.7777
    Octopole Moments (Debye-Ang^2)
       XXX       4.9999    XXY    -440.5071    XYY      -8.5593
       YYY    -724.7720    XXZ       5.3148    XYZ       6.4009
       YYZ     109.0253    XZZ      51.6310    YZZ    -299.9083
       ZZZ    -148.6021
    Hexadecapole Moments (Debye-Ang^3)
      XXXX   -5234.0975   XXXY   -1427.8154   XXYY   -2865.9673
      XYYY   -1471.0704   YYYY   -8510.7321   XXXZ     363.5536
      XXYZ    -158.0400   XYYZ     235.8702   YYYZ     231.8961
      XXZZ   -1102.9525   XYZZ    -593.5971   YYZZ   -1842.9844
      XZZZ     559.7160   YZZZ    -699.4170   ZZZZ   -1294.5159
    5th-Order Moments (Debye-Ang^4)
       500    6048.4453    410  -11941.7548    320   -6630.8506
       230  -13999.0950    140  -10162.5416    050  -73902.2758
       401    -303.4907    311    1522.6363    221    -705.5648
       131    1710.2503    041   -1395.3403    302    1326.5054
       212   -1978.3818    122   -2392.2180    032   -9980.7856
       203   -1055.7835    113     794.5294    023   -3850.9886
       104     926.3083    014   -3715.3674    005   -2008.7063
 -----------------------------------------------------------------
 -----------------------------------------------------------------
                 RPA Excited-State Multipoles, State    9   
                  LMN = < X^L Y^M Z^N >
 -----------------------------------------------------------------
    Charge (ESU x 10^10)
                 0.0000
    Dipole Moment (Debye)
         X      -0.6369      Y      13.4668      Z       7.8019
       Tot      15.5765
    Quadrupole Moments (Debye-Ang)
        XX    -128.4209     XY     -28.5249     YY    -101.3113
        XZ     -23.7790     YZ      18.7804     ZZ    -128.5949
    Octopole Moments (Debye-Ang^2)
       XXX      45.2639    XXY    -342.6058    XYY      57.7066
       YYY    -541.0698    XXZ      40.4992    XYZ      17.2075
       YYZ     157.6778    XZZ      52.5407    YZZ    -272.3965
       ZZZ    -132.1758
    Hexadecapole Moments (Debye-Ang^3)
      XXXX   -5261.3435   XXXY   -1593.5306   XXYY   -2881.0944
      XYYY   -1548.1481   YYYY   -8086.9724   XXXZ     253.8239
      XXYZ    -200.9597   XYYZ     123.4900   YYYZ     254.0999
      XXZZ   -1099.4951   XYZZ    -643.1150   YYZZ   -1814.9501
      XZZZ     523.5798   YZZZ    -685.7419   ZZZZ   -1278.9017
    5th-Order Moments (Debye-Ang^4)
       500    6359.2891    410  -11002.0259    320   -5892.2497
       230  -12765.9253    140   -9052.1104    050  -70441.4543
       401      20.9988    311    1633.4424    221    -449.8223
       131    1711.8904    041    -828.4632    302    1327.2917
       212   -1835.7662    122   -2380.2386    032   -9647.2417
       203    -968.4962    113     778.5334    023   -3688.6608
       104     900.6366    014   -3609.8923    005   -1931.4749
 -----------------------------------------------------------------
 -----------------------------------------------------------------
                 RPA Excited-State Multipoles, State   10   
                  LMN = < X^L Y^M Z^N >
 -----------------------------------------------------------------
    Charge (ESU x 10^10)
                 0.0000
    Dipole Moment (Debye)
         X       8.5175      Y      19.6261      Z       5.7453
       Tot      22.1526
    Quadrupole Moments (Debye-Ang)
        XX    -133.6649     XY      -8.2104     YY     -68.8880
        XZ     -20.6436     YZ      16.0864     ZZ    -129.8972
    Octopole Moments (Debye-Ang^2)
       XXX      99.6530    XXY    -338.2585    XYY     137.1620
       YYY    -336.3386    XXZ      24.1620    XYZ      32.9128
       YYZ     172.6237    XZZ      70.4190    YZZ    -268.5127
       ZZZ    -141.0324
    Hexadecapole Moments (Debye-Ang^3)
      XXXX   -5326.8559   XXXY   -1539.1652   XXYY   -2914.3134
      XYYY   -1248.0764   YYYY   -6841.9707   XXXZ     252.4021
      XXYZ    -241.6240   XYYZ     206.5094   YYYZ     431.0164
      XXZZ   -1105.1565   XYZZ    -588.3553   YYZZ   -1779.2030
      XZZZ     538.2340   YZZZ    -705.6789   ZZZZ   -1289.7783
    5th-Order Moments (Debye-Ang^4)
       500    6901.3068    410  -11010.8618    320   -5765.8051
       230  -12897.4337    140   -7530.9592    050  -62391.9471
       401    -140.5300    311    1642.1900    221    -515.5119
       131    2221.9940    041     599.2535    302    1437.0954
       212   -1822.9423    122   -2147.9681    032   -9360.8932
       203   -1023.4226    113     843.2020    023   -3704.0125
       104     971.2326    014   -3625.4280    005   -1982.0513
 -----------------------------------------------------------------
 -----------------------------------------------------------------
                 RPA Excited-State Multipoles, State   11   
                  LMN = < X^L Y^M Z^N >
 -----------------------------------------------------------------
    Charge (ESU x 10^10)
                 0.0000
    Dipole Moment (Debye)
         X      -5.3131      Y      -2.4948      Z       1.6114
       Tot       6.0869
    Quadrupole Moments (Debye-Ang)
        XX    -122.4233     XY      -4.7687     YY    -110.5002
        XZ      -9.0375     YZ      21.0790     ZZ    -130.0664
    Octopole Moments (Debye-Ang^2)
       XXX       3.0350    XXY    -446.7643    XYY     -10.4786
       YYY    -734.3662    XXZ       2.6023    XYZ       6.8194
       YYZ     107.0233    XZZ      52.1290    YZZ    -301.3261
       ZZZ    -149.7540
    Hexadecapole Moments (Debye-Ang^3)
      XXXX   -5232.5608   XXXY   -1415.4231   XXYY   -2871.1815
      XYYY   -1470.2266   YYYY   -8540.2166   XXXZ     371.0700
      XXYZ    -159.3753   XYYZ     240.4785   YYYZ     229.5761
      XXZZ   -1104.5634   XYZZ    -590.6741   YYZZ   -1845.2314
      XZZZ     562.6063   YZZZ    -701.2059   ZZZZ   -1296.9293
    5th-Order Moments (Debye-Ang^4)
       500    6031.8337    410  -11998.4708    320   -6641.9539
       230  -14053.0629    140  -10207.2341    050  -74065.7236
       401    -322.8344    311    1528.6610    221    -718.3150
       131    1713.2744    041   -1410.8131    302    1330.1889
       212   -1988.1327    122   -2390.0166    032   -9991.1042
       203   -1063.6954    113     798.9021    023   -3856.2662
       104     932.3746    014   -3720.5276    005   -2015.1404
 -----------------------------------------------------------------
 -----------------------------------------------------------------
                 RPA Excited-State Multipoles, State   12   
                  LMN = < X^L Y^M Z^N >
 -----------------------------------------------------------------
    Charge (ESU x 10^10)
                 0.0000
    Dipole Moment (Debye)
         X      -1.4440      Y       9.6853      Z       6.1355
       Tot      11.5557
    Quadrupole Moments (Debye-Ang)
        XX    -109.7670     XY      -9.0826     YY     -98.9202
        XZ     -23.1758     YZ      13.1745     ZZ    -130.3082
    Octopole Moments (Debye-Ang^2)
       XXX     -18.5389    XXY    -359.0070    XYY     106.1445
       YYY    -520.9607    XXZ      45.5222    XYZ      27.6807
       YYZ     137.2870    XZZ      53.6183    YZZ    -285.3564
       ZZZ    -139.7046
    Hexadecapole Moments (Debye-Ang^3)
      XXXX   -4847.9084   XXXY   -1439.1621   XXYY   -2812.0234
      XYYY   -1243.3347   YYYY   -7755.2574   XXXZ     187.7568
      XXYZ    -227.5426   XYYZ     177.8491   YYYZ     218.3173
      XXZZ   -1073.3672   XYZZ    -604.1389   YYZZ   -1842.4653
      XZZZ     529.1990   YZZZ    -713.7075   ZZZZ   -1292.4630
    5th-Order Moments (Debye-Ang^4)
       500    4726.8668    410  -11120.0968    320   -5602.7655
       230  -12544.2088    140   -7646.6976    050  -68000.6847
       401     344.8085    311    1662.6321    221    -557.1128
       131    1922.1541    041    -840.5163    302    1204.8341
       212   -1886.8583    122   -2263.9163    032   -9736.7456
       203    -953.5513    113     831.7198    023   -3789.1268
       104     917.1476    014   -3680.9855    005   -1980.8429
 -----------------------------------------------------------------
 -----------------------------------------------------------------
                 RPA Excited-State Multipoles, State   13   
                  LMN = < X^L Y^M Z^N >
 -----------------------------------------------------------------
    Charge (ESU x 10^10)
                 0.0000
    Dipole Moment (Debye)
         X      -2.5357      Y      10.7415      Z       7.4270
       Tot      13.3030
    Quadrupole Moments (Debye-Ang)
        XX    -120.4044     XY     -25.1884     YY    -107.4496
        XZ     -24.5553     YZ      17.1451     ZZ    -129.0258
    Octopole Moments (Debye-Ang^2)
       XXX       8.5998    XXY    -352.7038    XYY      57.0768
       YYY    -583.3663    XXZ      46.3010    XYZ      17.7891
       YYZ     143.9506    XZZ      49.9291    YZZ    -280.0042
       ZZZ    -134.5489
    Hexadecapole Moments (Debye-Ang^3)
      XXXX   -5115.5990   XXXY   -1585.8434   XXYY   -2890.2007
      XYYY   -1507.8116   YYYY   -8233.5873   XXXZ     218.9512
      XXYZ    -198.1751   XYYZ     148.4115   YYYZ     213.7514
      XXZZ   -1084.3480   XYZZ    -632.5425   YYZZ   -1841.3636
      XZZZ     521.9106   YZZZ    -699.6918   ZZZZ   -1285.3638
    5th-Order Moments (Debye-Ang^4)
       500    5717.1923    410  -11026.0828    320   -5945.3951
       230  -12928.5294    140   -8952.1085    050  -71116.2287
       401     187.6482    311    1608.0666    221    -494.9038
       131    1792.1941    041   -1023.7659    302    1254.5005
       212   -1852.7573    122   -2345.7377    032   -9776.8205
       203    -946.0735    113     795.1573    023   -3758.7974
       104     897.8540    014   -3651.3113    005   -1947.3671
 -----------------------------------------------------------------
 -----------------------------------------------------------------
                 RPA Excited-State Multipoles, State   14   
                  LMN = < X^L Y^M Z^N >
 -----------------------------------------------------------------
    Charge (ESU x 10^10)
                 0.0000
    Dipole Moment (Debye)
         X      -1.8376      Y      13.1699      Z       8.2962
       Tot      15.6732
    Quadrupole Moments (Debye-Ang)
        XX    -131.3148     XY     -35.0170     YY     -97.7815
        XZ     -24.5000     YZ      25.2037     ZZ    -125.7444
    Octopole Moments (Debye-Ang^2)
       XXX      55.6829    XXY    -341.9293    XYY      23.9182
       YYY    -521.6536    XXZ      38.8453    XYZ       5.0186
       YYZ     183.3919    XZZ      47.2917    YZZ    -260.2878
       ZZZ    -126.1195
    Hexadecapole Moments (Debye-Ang^3)
      XXXX   -5370.2243   XXXY   -1650.0529   XXYY   -2879.6590
      XYYY   -1667.4950   YYYY   -7886.7873   XXXZ     264.2973
      XXYZ    -167.9191   XYYZ      97.9985   YYYZ     406.6508
      XXZZ   -1089.3113   XYZZ    -665.6252   YYZZ   -1755.2857
      XZZZ     511.7685   YZZZ    -651.6974   ZZZZ   -1260.5622
    5th-Order Moments (Debye-Ang^4)
       500    6789.2139    410  -11040.5039    320   -6169.2532
       230  -12838.1129    140   -9567.0727    050  -68916.7545
       401     -67.2345    311    1560.5211    221    -340.5691
       131    1614.0949    041     -18.4940    302    1330.3681
       212   -1778.2407    122   -2479.5051    032   -9370.4838
       203    -954.3958    113     712.3993    023   -3541.2601
       104     869.7665    014   -3522.8513    005   -1882.7795
 -----------------------------------------------------------------
 Total job time:  6134.67s(wall), 83180.79s(cpu) 
 Fri Jan 31 02:54:05 2025

        *************************************************************
        *                                                           *
        *  Thank you very much for using Q-Chem.  Have a nice day.  *
        *                                                           *
        *************************************************************


