
Running Job 1 of 1 Malvidin_Q3_tddft_full.in
qchem Malvidin_Q3_tddft_full.in_1880308.0 /data/brussel/103/vsc10365/activedata/TDDFTAnthocyanidines/qchem1880308/ 1
/apps/brussel/RL8/skylake/software/Q-Chem/6.2.0/exe/qcprog.exe_s Malvidin_Q3_tddft_full.in_1880308.0 /data/brussel/103/vsc10365/activedata/TDDFTAnthocyanidines/qchem1880308/
                  Welcome to Q-Chem
     A Quantum Leap Into The Future Of Chemistry


 Q-Chem 6.2, Q-Chem, Inc., Pleasanton, CA (2024)

 License issued to: SRG Prof. Dr. Frank De Proft, Vrije Universiteit Brussel

 E. Epifanovsky,  A. T. B. Gilbert,  Xintian Feng,  Joonho Lee,  Yuezhi Mao,  
 N. Mardirossian,  P. Pokhilko,  A. White,  M. Wormit,  M. P. Coons,  
 A. L. Dempwolff,  Zhengting Gan,  D. Hait,  P. R. Horn,  L. D. Jacobson,  
 I. Kaliman,  J. Kussmann,  A. W. Lange,  Ka Un Lao,  D. S. Levine,  Jie Liu,  
 S. C. McKenzie,  A. F. Morrison,  K. D. Nanda,  F. Plasser,  D. R. Rehn,  
 M. L. Vidal,  Zhi-Qiang You,  Ying Zhu,  Huseyin Aksu,  B. Alam,  
 B. Albrecht,  A. Aldossary,  E. Alguire,  J. H. Andersen,  
 J. E. Arias-Martinez,  V. Athavale,  D. Barton,  K. Begam,  A. Behn,  
 N. Bellonzi,  Y. A. Bernard,  E. J. Berquist,  H. Burton,  A. Carreras,  
 K. Carter-Fenk,  Mathew Chow,  Romit Chakraborty,  Chandrima Chakravarty,  
 Junhan Chen,  A. D. Chien,  K. D. Closser,  V. Cofer-Shabica,  L. Cunha,  
 S. Dasgupta,  Jia Deng,  Joseph Dickinson,  M. de Wergifosse,  
 M. Diedenhofen,  Hainam Do,  Wenjie Dou,  S. Ehlert,  Po-Tung Fang,  
 S. Fatehi,  Qingguo Feng,  Jonathan Fetherolf,  T. Friedhoff,  
 Thomas Froitzheim,  Sarai Folkestad,  B. Ganoe,  J. Gayvert,  Qinghui Ge,  
 G. Gidofalvi,  M. Gimferrer,  M. Goldey,  Montgomery Gray,  J. Gomes,  
 C. Gonzalez-Espinoza,  S. Gulania,  A. Gunina,  J. A. Gyamfi,  
 M. W. D. Hanson-Heine,  P. H. P. Harbach,  A. W. Hauser,  M. F. Herbst,  
 M. Hernandez Vera,  M. Hodecker,  Z. C. Holden,  S. Houck,  Xunkun Huang,  
 Kerwin Hui,  B. C. Huynh,  K. Ikeda,  M. Ivanov,  Nayanthara K. Jayadev,  
 Hyunjun Ji,  Zuxin Jin,  Hanjie Jiang,  Subrata Jana,  B. Kaduk,  
 S. Kaehler,  R. Kang,  K. Khistyaev,  Jaehoon Kim,  Yongbin Kim,  
 P. Klunzinger,  Z. Koczor-Benda,  Joong Hoon Koh,  D. Kosenkov,  
 Saikiran Kotaru,  L. Koulias,  T. Kowalczyk,  C. M. Krauter,  K. Kue,  
 A. Kunitsa,  T. Kus,  A. Landau,  K. V. Lawler,  D. Lefrancois,  S. Lehtola,  
 Rain Li,  Shaozhi Li,  Tao E. Li,  Yi-Pei Li,  Jiashu Liang,  M. Liebenthal,  
 Hung-Hsuan Lin,  You-Sheng Lin,  Fenglai Liu,  Kuan-Yu Liu,  Xiao Liu,  
 M. Loipersberger,  A. Luenser,  C. Malbon,  Aniket Mandal,  Manisha,  
 A. Manjanath,  P. Manohar,  E. Mansoor,  S. F. Manzer,  Shan-Ping Mao,  
 A. V. Marenich,  T. Markovich,  S. Mason,  F. Matz,  S. A. Maurer,  
 Samuel May,  Alexandra McIsaac,  P. F. McLaughlin,  M. F. S. J. Menger,  
 J.-M. Mewes,  S. A. Mewes,  P. Morgante,  Mohammad Mostafanejad,  
 Madhubani Mukherjee,  J. W. Mullinax,  Quyen Nguyen,  Avik Kumar Ojha,  
 K. J. Oosterbaan,  Eno Paenurk,  Xiaoliang Pan,  G. Paran,  V. Parravicini,  
 Alexander C. Paul,  Suranjan K. Paul,  F. Pavosevic,  Zheng Pei,  S. Prager,  
 E. I. Proynov,  E. Ramos,  B. Rana,  A. E. Rask,  A. Rettig,  R. M. Richard,  
 F. Rob,  E. Rossomme,  T. Scheele,  M. Scheurer,  M. Schneider,  
 P. E. Schneider,  Tim K. Schramm,  N. Sergueev,  S. M. Sharada,  
 Hengyuan Shen,  W. Skomorowski,  D. W. Small,  C. J. Stein,  
 Alistair J. Sterling,  Yingli Su,  Yu-Chuan Su,  E. J. Sundstrom,  
 J. Talbot,  Zhen Tao,  J. Thirman,  Hung-Yi Tsai,  T. Tsuchimochi,  
 N. M. Tubman,  C. Utku,  S. P. Veccham,  O. Vydrov,  Rahel Weiss,  
 J. Wenzel,  Jonathan Wong,  J. Witte,  H. Wu,  Yanze Wu,  A. Yamada,  
 Chou-Hsun Yang,  Kun Yao,  S. Yeganeh,  S. R. Yost,  Qi Yu,  A. Zech,  
 F. Zeller,  Chongxiao Zhao,  Igor Ying Zhang,  Xing Zhang,  Yu Zhang,  
 D. Zuev,  A. Aspuru-Guzik,  A. T. Bell,  N. A. Besley,  K. B. Bravaya,  
 B. R. Brooks,  D. Casanova,  Jeng-Da Chai,  Hsing-Ta Chen,  S. Coriani,  
 C. J. Cramer,  A. E. DePrince, III,  R. A. DiStasio Jr.,  A. Dreuw,  
 B. D. Dunietz,  T. R. Furlani,  W. A. Goddard III,  S. Grimme,  
 S. Hammes-Schiffer,  T. Head-Gordon,  W. J. Hehre,  Chao-Ping Hsu,  
 T.-C. Jagau,  Yousung Jung,  A. Klamt,  Jing Kong,  D. S. Lambrecht,  
 Xiangyuan Li,  WanZhen Liang,  N. J. Mayhall,  C. W. McCurdy,  J. B. Neaton,  
 T. Neudecker,  C. Ochsenfeld,  J. A. Parkhill,  R. Peverati,  
 V. A. Rassolov,  Haisheng Ren,  Yihan Shao,  L. V. Slipchenko,  
 R. P. Steele,  J. E. Subotnik,  A. J. W. Thom,  A. Tkatchenko,  
 D. G. Truhlar,  T. Van Voorhis,  Fan Wang,  T. A. Wesolowski,  K. B. Whaley,  
 H. L. Woodcock III,  P. M. Zimmerman,  S. Faraji,  P. M. W. Gill,  
 M. Head-Gordon,  J. M. Herbert,  A. I. Krylov

 Contributors to earlier versions of Q-Chem not listed above: 
 R. D. Adamson,  B. Austin,  R. Baer,  J. Baker,  G. J. O. Beran,  
 K. Brandhorst,  S. T. Brown,  E. F. C. Byrd,  Arup K. Chakraborty,  
 G. K. L. Chan,  Chun-Min Chang,  Yunqing Chen,  C.-L. Cheng,  
 Siu Hung Chien,  D. M. Chipman,  D. L. Crittenden,  H. Dachsel,  
 R. J. Doerksen,  A. D. Dutoi,  R. G. Edgar,  J. Fosso-Tande,  
 L. Fusti-Molnar,  D. Ghosh,  A. Ghysels,  A. Golubeva-Zadorozhnaya,  
 J. Gonthier,  M. S. Gordon,  S. R. Gwaltney,  G. Hawkins,  J. E. Herr,  
 A. Heyden,  S. Hirata,  E. G. Hohenstein,  G. Kedziora,  F. J. Keil,  
 C. Kelley,  Jihan Kim,  R. A. King,  R. Z. Khaliullin,  P. P. Korambath,  
 W. Kurlancheek,  A. Laurent,  A. M. Lee,  M. S. Lee,  S. V. Levchenko,  
 Ching Yeh Lin,  D. Liotard,  E. Livshits,  R. C. Lochan,  I. Lotan,  
 L. A. Martinez-Martinez,  P. E. Maslen,  N. Nair,  D. P. O'Neill,  
 D. Neuhauser,  E. Neuscamman,  C. M. Oana,  R. Olivares-Amaya,  R. Olson,  
 T. M. Perrine,  B. Peters,  P. A. Pieniazek,  A. Prociuk,  Y. M. Rhee,  
 J. Ritchie,  M. A. Rohrdanz,  E. Rosta,  N. J. Russ,  H. F. Schaefer III,  
 M. W. Schmidt,  N. E. Schultz,  S. Sharma,  N. Shenvi,  C. D. Sherrill,  
 A. C. Simmonett,  A. Sodt,  T. Stein,  D. Stuck,  K. S. Thanthiriwatte,  
 V. Vanovschi,  L. Vogt,  Tao Wang,  A. Warshel,  M. A. Watson,  
 C. F. Williams,  Q. Wu,  X. Xu,  Jun Yang,  W. Zhang,  Yan Zhao

   Please cite Q-Chem as follows:
  "Software for the frontiers of quantum chemistry:
   An overview of developments in the Q-Chem 5 package"
   J. Chem. Phys. 155, 084801 (2021)
   https://doi.org/10.1063/5.0055522 (open access)

 Q-Chem 6.2.0 for Intel X86 EM64T Linux

 Parts of Q-Chem use Armadillo 9.900.5 (Nocturnal Misbehaviour).
 http://arma.sourceforge.net/

 Q-Chem begins on Fri Jan 31 01:11:29 2025  

 Host: 
0

     Scratch files written to /data/brussel/103/vsc10365/activedata/TDDFTAnthocyanidines/qchem1880308//
 May224 |scratch|qcdevops|jenkins|workspace|build_RNUM -1
 Processing $rem in /apps/brussel/RL8/skylake/software/Q-Chem/6.2.0/config/preferences:
 Processing $rem in /user/brussel/103/vsc10365/.qchemrc:
 Symmetry turned off for PCM/SM12/SMD calculation

 Checking the input file for inconsistencies... 	...done.

--------------------------------------------------------------
User input:
--------------------------------------------------------------
$comment
TDDFT calculation of malvidin Q3 structure
nprocs=16
mem=64gb
$end

$molecule
0 1
C   -2.7420756   -1.5008458   -0.4234649
C   -3.8872285   -1.2873056    0.3704726
C   -4.0237674   -0.1213180    1.0822137
C   -3.0144567    0.8858121    1.0266544
C   -1.8931485    0.6116034    0.2188700
C   -1.7327871   -0.5602102   -0.5090735
C   -3.0584334    2.1046823    1.7028730
C   -2.0395310    3.0791066    1.6186672
C   -0.9246741    2.7249770    0.7773198
O   -0.9199571    1.5367825    0.1432582
C    0.2618297    3.5044803    0.5016619
C    0.4216910    4.8002110    1.0287987
C    1.5679856    5.5216378    0.7416512
C    2.5738607    4.9778757   -0.0640805
C    2.4201378    3.6877605   -0.5928205
C    1.2771933    2.9609410   -0.3140576
O   -2.5964962   -2.6544062   -1.1348158
H   -4.6589017   -2.0474311    0.4166632
O   -5.1023948    0.1449337    1.8661166
H   -0.8545799   -0.7246219   -1.1166296
H   -3.9090199    2.3375378    2.3304236
O   -2.1124401    4.1933818    2.2523996
H   -0.3551509    5.2116426    1.6481090
O    1.8369211    6.7856078    1.1879285
O    3.7051230    5.6776118   -0.3484000
H    1.1622378    1.9707972   -0.7220226
H   -3.3655352   -3.2275719   -1.0032067
H   -5.7226077   -0.5983008    1.8427309
H    3.6522606    6.5395439    0.0944988
C    0.8564367    7.4450916    1.9957897
H    1.2732258    8.4221497    2.2265098
H    0.6795592    6.8938793    2.9208336
H   -0.0798503    7.5650035    1.4478892
O    3.4541806    3.2487246   -1.3674197
C    3.3627094    1.9376304   -1.9332091
H    4.2790618    1.7977282   -2.5011227
H    2.5026364    1.8582574   -2.6011213
H    3.2966355    1.1778799   -1.1518989
$end

$rem
BASIS  =  def2-ma-TZVP
MEM_STATIC  =  2000
MEM_TOTAL  =  64000
METHOD  =  CAM-B3LYP
SOLVENT_METHOD = pcm
SYMMETRY_IGNORE  =  1
CIS_N_ROOTS = 7
CIS_SINGLETS = true
CIS_TRIPLETS = true
CISTR_PRINT = true
RPA = true
PRINT_ORBITALS = true
SCF_PRINT = 1
SCF_FINAL_PRINT = 2
PRINT_GENERAL_BASIS = true
CISTR_PRINT = true
PRINT_RADII_GYRE = true
MULTIPOLE_ORDER = 5
CIS_AMPL_PRINT = 5
CIS_AMPL_ANAL = true
STATE_ANALYSIS = true
$end

$pcm
Theory   CPCM
Method   SWIG
Solver   Inversion
Radii    Bondi
$end

$solvent
Dielectric         78.39
OpticalDielectric  1.777849
$end


--------------------------------------------------------------
 ----------------------------------------------------------------
             Standard Nuclear Orientation (Angstroms)
    I     Atom           X                Y                Z
 ----------------------------------------------------------------
    1      C      -2.7420756000    -1.5008458000    -0.4234649000
    2      C      -3.8872285000    -1.2873056000     0.3704726000
    3      C      -4.0237674000    -0.1213180000     1.0822137000
    4      C      -3.0144567000     0.8858121000     1.0266544000
    5      C      -1.8931485000     0.6116034000     0.2188700000
    6      C      -1.7327871000    -0.5602102000    -0.5090735000
    7      C      -3.0584334000     2.1046823000     1.7028730000
    8      C      -2.0395310000     3.0791066000     1.6186672000
    9      C      -0.9246741000     2.7249770000     0.7773198000
   10      O      -0.9199571000     1.5367825000     0.1432582000
   11      C       0.2618297000     3.5044803000     0.5016619000
   12      C       0.4216910000     4.8002110000     1.0287987000
   13      C       1.5679856000     5.5216378000     0.7416512000
   14      C       2.5738607000     4.9778757000    -0.0640805000
   15      C       2.4201378000     3.6877605000    -0.5928205000
   16      C       1.2771933000     2.9609410000    -0.3140576000
   17      O      -2.5964962000    -2.6544062000    -1.1348158000
   18      H      -4.6589017000    -2.0474311000     0.4166632000
   19      O      -5.1023948000     0.1449337000     1.8661166000
   20      H      -0.8545799000    -0.7246219000    -1.1166296000
   21      H      -3.9090199000     2.3375378000     2.3304236000
   22      O      -2.1124401000     4.1933818000     2.2523996000
   23      H      -0.3551509000     5.2116426000     1.6481090000
   24      O       1.8369211000     6.7856078000     1.1879285000
   25      O       3.7051230000     5.6776118000    -0.3484000000
   26      H       1.1622378000     1.9707972000    -0.7220226000
   27      H      -3.3655352000    -3.2275719000    -1.0032067000
   28      H      -5.7226077000    -0.5983008000     1.8427309000
   29      H       3.6522606000     6.5395439000     0.0944988000
   30      C       0.8564367000     7.4450916000     1.9957897000
   31      H       1.2732258000     8.4221497000     2.2265098000
   32      H       0.6795592000     6.8938793000     2.9208336000
   33      H      -0.0798503000     7.5650035000     1.4478892000
   34      O       3.4541806000     3.2487246000    -1.3674197000
   35      C       3.3627094000     1.9376304000    -1.9332091000
   36      H       4.2790618000     1.7977282000    -2.5011227000
   37      H       2.5026364000     1.8582574000    -2.6011213000
   38      H       3.2966355000     1.1778799000    -1.1518989000
 ----------------------------------------------------------------
 Nuclear Repulsion Energy =        1988.44098806 hartrees
 There are       86 alpha and       86 beta electrons
 Requested basis set is def2-ma-TZVP
 Basis set in general basis input format:
-----------------------------------------------------------------------
$basis
C    0
S    6    1.000000
   1.35753497E+04    2.22458144E-04 
   2.03523337E+03    1.72327383E-03 
   4.63225624E+02    8.92557153E-03 
   1.31200196E+02    3.57279845E-02 
   4.28530159E+01    1.10762599E-01 
   1.55841858E+01    2.42956276E-01 
S    2    1.000000
   6.20671385E+00    4.14402634E-01 
   2.57648965E+00    2.37449687E-01 
S    1    1.000000
   5.76963394E-01    1.00000000E+00 
S    1    1.000000
   2.29728314E-01    1.00000000E+00 
S    1    1.000000
   9.51644400E-02    1.00000000E+00 
S    1    1.000000
   4.84754014E-02    1.00000000E+00 
P    4    1.000000
   3.46972322E+01    5.33336578E-03 
   7.95826228E+00    3.58641091E-02 
   2.37808269E+00    1.42158733E-01 
   8.14332082E-01    3.42704718E-01 
P    1    1.000000
   2.88875473E-01    4.64458224E-01 
P    1    1.000000
   1.00568237E-01    2.49557899E-01 
D    1    1.000000
   1.09700000E+00    1.00000000E+00 
D    1    1.000000
   3.18000000E-01    1.00000000E+00 
F    1    1.000000
   7.61000000E-01    1.00000000E+00 
****
C    0
S    6    1.000000
   1.35753497E+04    2.22458144E-04 
   2.03523337E+03    1.72327383E-03 
   4.63225624E+02    8.92557153E-03 
   1.31200196E+02    3.57279845E-02 
   4.28530159E+01    1.10762599E-01 
   1.55841858E+01    2.42956276E-01 
S    2    1.000000
   6.20671385E+00    4.14402634E-01 
   2.57648965E+00    2.37449687E-01 
S    1    1.000000
   5.76963394E-01    1.00000000E+00 
S    1    1.000000
   2.29728314E-01    1.00000000E+00 
S    1    1.000000
   9.51644400E-02    1.00000000E+00 
S    1    1.000000
   4.84754014E-02    1.00000000E+00 
P    4    1.000000
   3.46972322E+01    5.33336578E-03 
   7.95826228E+00    3.58641091E-02 
   2.37808269E+00    1.42158733E-01 
   8.14332082E-01    3.42704718E-01 
P    1    1.000000
   2.88875473E-01    4.64458224E-01 
P    1    1.000000
   1.00568237E-01    2.49557899E-01 
D    1    1.000000
   1.09700000E+00    1.00000000E+00 
D    1    1.000000
   3.18000000E-01    1.00000000E+00 
F    1    1.000000
   7.61000000E-01    1.00000000E+00 
****
C    0
S    6    1.000000
   1.35753497E+04    2.22458144E-04 
   2.03523337E+03    1.72327383E-03 
   4.63225624E+02    8.92557153E-03 
   1.31200196E+02    3.57279845E-02 
   4.28530159E+01    1.10762599E-01 
   1.55841858E+01    2.42956276E-01 
S    2    1.000000
   6.20671385E+00    4.14402634E-01 
   2.57648965E+00    2.37449687E-01 
S    1    1.000000
   5.76963394E-01    1.00000000E+00 
S    1    1.000000
   2.29728314E-01    1.00000000E+00 
S    1    1.000000
   9.51644400E-02    1.00000000E+00 
S    1    1.000000
   4.84754014E-02    1.00000000E+00 
P    4    1.000000
   3.46972322E+01    5.33336578E-03 
   7.95826228E+00    3.58641091E-02 
   2.37808269E+00    1.42158733E-01 
   8.14332082E-01    3.42704718E-01 
P    1    1.000000
   2.88875473E-01    4.64458224E-01 
P    1    1.000000
   1.00568237E-01    2.49557899E-01 
D    1    1.000000
   1.09700000E+00    1.00000000E+00 
D    1    1.000000
   3.18000000E-01    1.00000000E+00 
F    1    1.000000
   7.61000000E-01    1.00000000E+00 
****
C    0
S    6    1.000000
   1.35753497E+04    2.22458144E-04 
   2.03523337E+03    1.72327383E-03 
   4.63225624E+02    8.92557153E-03 
   1.31200196E+02    3.57279845E-02 
   4.28530159E+01    1.10762599E-01 
   1.55841858E+01    2.42956276E-01 
S    2    1.000000
   6.20671385E+00    4.14402634E-01 
   2.57648965E+00    2.37449687E-01 
S    1    1.000000
   5.76963394E-01    1.00000000E+00 
S    1    1.000000
   2.29728314E-01    1.00000000E+00 
S    1    1.000000
   9.51644400E-02    1.00000000E+00 
S    1    1.000000
   4.84754014E-02    1.00000000E+00 
P    4    1.000000
   3.46972322E+01    5.33336578E-03 
   7.95826228E+00    3.58641091E-02 
   2.37808269E+00    1.42158733E-01 
   8.14332082E-01    3.42704718E-01 
P    1    1.000000
   2.88875473E-01    4.64458224E-01 
P    1    1.000000
   1.00568237E-01    2.49557899E-01 
D    1    1.000000
   1.09700000E+00    1.00000000E+00 
D    1    1.000000
   3.18000000E-01    1.00000000E+00 
F    1    1.000000
   7.61000000E-01    1.00000000E+00 
****
C    0
S    6    1.000000
   1.35753497E+04    2.22458144E-04 
   2.03523337E+03    1.72327383E-03 
   4.63225624E+02    8.92557153E-03 
   1.31200196E+02    3.57279845E-02 
   4.28530159E+01    1.10762599E-01 
   1.55841858E+01    2.42956276E-01 
S    2    1.000000
   6.20671385E+00    4.14402634E-01 
   2.57648965E+00    2.37449687E-01 
S    1    1.000000
   5.76963394E-01    1.00000000E+00 
S    1    1.000000
   2.29728314E-01    1.00000000E+00 
S    1    1.000000
   9.51644400E-02    1.00000000E+00 
S    1    1.000000
   4.84754014E-02    1.00000000E+00 
P    4    1.000000
   3.46972322E+01    5.33336578E-03 
   7.95826228E+00    3.58641091E-02 
   2.37808269E+00    1.42158733E-01 
   8.14332082E-01    3.42704718E-01 
P    1    1.000000
   2.88875473E-01    4.64458224E-01 
P    1    1.000000
   1.00568237E-01    2.49557899E-01 
D    1    1.000000
   1.09700000E+00    1.00000000E+00 
D    1    1.000000
   3.18000000E-01    1.00000000E+00 
F    1    1.000000
   7.61000000E-01    1.00000000E+00 
****
C    0
S    6    1.000000
   1.35753497E+04    2.22458144E-04 
   2.03523337E+03    1.72327383E-03 
   4.63225624E+02    8.92557153E-03 
   1.31200196E+02    3.57279845E-02 
   4.28530159E+01    1.10762599E-01 
   1.55841858E+01    2.42956276E-01 
S    2    1.000000
   6.20671385E+00    4.14402634E-01 
   2.57648965E+00    2.37449687E-01 
S    1    1.000000
   5.76963394E-01    1.00000000E+00 
S    1    1.000000
   2.29728314E-01    1.00000000E+00 
S    1    1.000000
   9.51644400E-02    1.00000000E+00 
S    1    1.000000
   4.84754014E-02    1.00000000E+00 
P    4    1.000000
   3.46972322E+01    5.33336578E-03 
   7.95826228E+00    3.58641091E-02 
   2.37808269E+00    1.42158733E-01 
   8.14332082E-01    3.42704718E-01 
P    1    1.000000
   2.88875473E-01    4.64458224E-01 
P    1    1.000000
   1.00568237E-01    2.49557899E-01 
D    1    1.000000
   1.09700000E+00    1.00000000E+00 
D    1    1.000000
   3.18000000E-01    1.00000000E+00 
F    1    1.000000
   7.61000000E-01    1.00000000E+00 
****
C    0
S    6    1.000000
   1.35753497E+04    2.22458144E-04 
   2.03523337E+03    1.72327383E-03 
   4.63225624E+02    8.92557153E-03 
   1.31200196E+02    3.57279845E-02 
   4.28530159E+01    1.10762599E-01 
   1.55841858E+01    2.42956276E-01 
S    2    1.000000
   6.20671385E+00    4.14402634E-01 
   2.57648965E+00    2.37449687E-01 
S    1    1.000000
   5.76963394E-01    1.00000000E+00 
S    1    1.000000
   2.29728314E-01    1.00000000E+00 
S    1    1.000000
   9.51644400E-02    1.00000000E+00 
S    1    1.000000
   4.84754014E-02    1.00000000E+00 
P    4    1.000000
   3.46972322E+01    5.33336578E-03 
   7.95826228E+00    3.58641091E-02 
   2.37808269E+00    1.42158733E-01 
   8.14332082E-01    3.42704718E-01 
P    1    1.000000
   2.88875473E-01    4.64458224E-01 
P    1    1.000000
   1.00568237E-01    2.49557899E-01 
D    1    1.000000
   1.09700000E+00    1.00000000E+00 
D    1    1.000000
   3.18000000E-01    1.00000000E+00 
F    1    1.000000
   7.61000000E-01    1.00000000E+00 
****
C    0
S    6    1.000000
   1.35753497E+04    2.22458144E-04 
   2.03523337E+03    1.72327383E-03 
   4.63225624E+02    8.92557153E-03 
   1.31200196E+02    3.57279845E-02 
   4.28530159E+01    1.10762599E-01 
   1.55841858E+01    2.42956276E-01 
S    2    1.000000
   6.20671385E+00    4.14402634E-01 
   2.57648965E+00    2.37449687E-01 
S    1    1.000000
   5.76963394E-01    1.00000000E+00 
S    1    1.000000
   2.29728314E-01    1.00000000E+00 
S    1    1.000000
   9.51644400E-02    1.00000000E+00 
S    1    1.000000
   4.84754014E-02    1.00000000E+00 
P    4    1.000000
   3.46972322E+01    5.33336578E-03 
   7.95826228E+00    3.58641091E-02 
   2.37808269E+00    1.42158733E-01 
   8.14332082E-01    3.42704718E-01 
P    1    1.000000
   2.88875473E-01    4.64458224E-01 
P    1    1.000000
   1.00568237E-01    2.49557899E-01 
D    1    1.000000
   1.09700000E+00    1.00000000E+00 
D    1    1.000000
   3.18000000E-01    1.00000000E+00 
F    1    1.000000
   7.61000000E-01    1.00000000E+00 
****
C    0
S    6    1.000000
   1.35753497E+04    2.22458144E-04 
   2.03523337E+03    1.72327383E-03 
   4.63225624E+02    8.92557153E-03 
   1.31200196E+02    3.57279845E-02 
   4.28530159E+01    1.10762599E-01 
   1.55841858E+01    2.42956276E-01 
S    2    1.000000
   6.20671385E+00    4.14402634E-01 
   2.57648965E+00    2.37449687E-01 
S    1    1.000000
   5.76963394E-01    1.00000000E+00 
S    1    1.000000
   2.29728314E-01    1.00000000E+00 
S    1    1.000000
   9.51644400E-02    1.00000000E+00 
S    1    1.000000
   4.84754014E-02    1.00000000E+00 
P    4    1.000000
   3.46972322E+01    5.33336578E-03 
   7.95826228E+00    3.58641091E-02 
   2.37808269E+00    1.42158733E-01 
   8.14332082E-01    3.42704718E-01 
P    1    1.000000
   2.88875473E-01    4.64458224E-01 
P    1    1.000000
   1.00568237E-01    2.49557899E-01 
D    1    1.000000
   1.09700000E+00    1.00000000E+00 
D    1    1.000000
   3.18000000E-01    1.00000000E+00 
F    1    1.000000
   7.61000000E-01    1.00000000E+00 
****
O    0
S    6    1.000000
   2.70323826E+04    2.17263025E-04 
   4.05238714E+03    1.68386622E-03 
   9.22327227E+02    8.73956163E-03 
   2.61240710E+02    3.52399688E-02 
   8.53546414E+01    1.11535191E-01 
   3.10350352E+01    2.55889540E-01 
S    2    1.000000
   1.22608607E+01    3.97687309E-01 
   4.99870760E+00    2.46278494E-01 
S    1    1.000000
   1.17031082E+00    1.00000000E+00 
S    1    1.000000
   4.64747410E-01    1.00000000E+00 
S    1    1.000000
   1.85045364E-01    1.00000000E+00 
S    1    1.000000
   7.02880263E-02    1.00000000E+00 
P    4    1.000000
   6.32749548E+01    6.06851034E-03 
   1.46270494E+01    4.19125758E-02 
   4.45012235E+00    1.61538411E-01 
   1.52757996E+00    3.57069513E-01 
P    1    1.000000
   5.29351179E-01    4.47942075E-01 
P    1    1.000000
   1.74784213E-01    2.44460697E-01 
P    1    1.000000
   5.11127457E-02    1.00000000E+00 
D    1    1.000000
   2.31400000E+00    1.00000000E+00 
D    1    1.000000
   6.45000000E-01    1.00000000E+00 
F    1    1.000000
   1.42800000E+00    1.00000000E+00 
****
C    0
S    6    1.000000
   1.35753497E+04    2.22458144E-04 
   2.03523337E+03    1.72327383E-03 
   4.63225624E+02    8.92557153E-03 
   1.31200196E+02    3.57279845E-02 
   4.28530159E+01    1.10762599E-01 
   1.55841858E+01    2.42956276E-01 
S    2    1.000000
   6.20671385E+00    4.14402634E-01 
   2.57648965E+00    2.37449687E-01 
S    1    1.000000
   5.76963394E-01    1.00000000E+00 
S    1    1.000000
   2.29728314E-01    1.00000000E+00 
S    1    1.000000
   9.51644400E-02    1.00000000E+00 
S    1    1.000000
   4.84754014E-02    1.00000000E+00 
P    4    1.000000
   3.46972322E+01    5.33336578E-03 
   7.95826228E+00    3.58641091E-02 
   2.37808269E+00    1.42158733E-01 
   8.14332082E-01    3.42704718E-01 
P    1    1.000000
   2.88875473E-01    4.64458224E-01 
P    1    1.000000
   1.00568237E-01    2.49557899E-01 
D    1    1.000000
   1.09700000E+00    1.00000000E+00 
D    1    1.000000
   3.18000000E-01    1.00000000E+00 
F    1    1.000000
   7.61000000E-01    1.00000000E+00 
****
C    0
S    6    1.000000
   1.35753497E+04    2.22458144E-04 
   2.03523337E+03    1.72327383E-03 
   4.63225624E+02    8.92557153E-03 
   1.31200196E+02    3.57279845E-02 
   4.28530159E+01    1.10762599E-01 
   1.55841858E+01    2.42956276E-01 
S    2    1.000000
   6.20671385E+00    4.14402634E-01 
   2.57648965E+00    2.37449687E-01 
S    1    1.000000
   5.76963394E-01    1.00000000E+00 
S    1    1.000000
   2.29728314E-01    1.00000000E+00 
S    1    1.000000
   9.51644400E-02    1.00000000E+00 
S    1    1.000000
   4.84754014E-02    1.00000000E+00 
P    4    1.000000
   3.46972322E+01    5.33336578E-03 
   7.95826228E+00    3.58641091E-02 
   2.37808269E+00    1.42158733E-01 
   8.14332082E-01    3.42704718E-01 
P    1    1.000000
   2.88875473E-01    4.64458224E-01 
P    1    1.000000
   1.00568237E-01    2.49557899E-01 
D    1    1.000000
   1.09700000E+00    1.00000000E+00 
D    1    1.000000
   3.18000000E-01    1.00000000E+00 
F    1    1.000000
   7.61000000E-01    1.00000000E+00 
****
C    0
S    6    1.000000
   1.35753497E+04    2.22458144E-04 
   2.03523337E+03    1.72327383E-03 
   4.63225624E+02    8.92557153E-03 
   1.31200196E+02    3.57279845E-02 
   4.28530159E+01    1.10762599E-01 
   1.55841858E+01    2.42956276E-01 
S    2    1.000000
   6.20671385E+00    4.14402634E-01 
   2.57648965E+00    2.37449687E-01 
S    1    1.000000
   5.76963394E-01    1.00000000E+00 
S    1    1.000000
   2.29728314E-01    1.00000000E+00 
S    1    1.000000
   9.51644400E-02    1.00000000E+00 
S    1    1.000000
   4.84754014E-02    1.00000000E+00 
P    4    1.000000
   3.46972322E+01    5.33336578E-03 
   7.95826228E+00    3.58641091E-02 
   2.37808269E+00    1.42158733E-01 
   8.14332082E-01    3.42704718E-01 
P    1    1.000000
   2.88875473E-01    4.64458224E-01 
P    1    1.000000
   1.00568237E-01    2.49557899E-01 
D    1    1.000000
   1.09700000E+00    1.00000000E+00 
D    1    1.000000
   3.18000000E-01    1.00000000E+00 
F    1    1.000000
   7.61000000E-01    1.00000000E+00 
****
C    0
S    6    1.000000
   1.35753497E+04    2.22458144E-04 
   2.03523337E+03    1.72327383E-03 
   4.63225624E+02    8.92557153E-03 
   1.31200196E+02    3.57279845E-02 
   4.28530159E+01    1.10762599E-01 
   1.55841858E+01    2.42956276E-01 
S    2    1.000000
   6.20671385E+00    4.14402634E-01 
   2.57648965E+00    2.37449687E-01 
S    1    1.000000
   5.76963394E-01    1.00000000E+00 
S    1    1.000000
   2.29728314E-01    1.00000000E+00 
S    1    1.000000
   9.51644400E-02    1.00000000E+00 
S    1    1.000000
   4.84754014E-02    1.00000000E+00 
P    4    1.000000
   3.46972322E+01    5.33336578E-03 
   7.95826228E+00    3.58641091E-02 
   2.37808269E+00    1.42158733E-01 
   8.14332082E-01    3.42704718E-01 
P    1    1.000000
   2.88875473E-01    4.64458224E-01 
P    1    1.000000
   1.00568237E-01    2.49557899E-01 
D    1    1.000000
   1.09700000E+00    1.00000000E+00 
D    1    1.000000
   3.18000000E-01    1.00000000E+00 
F    1    1.000000
   7.61000000E-01    1.00000000E+00 
****
C    0
S    6    1.000000
   1.35753497E+04    2.22458144E-04 
   2.03523337E+03    1.72327383E-03 
   4.63225624E+02    8.92557153E-03 
   1.31200196E+02    3.57279845E-02 
   4.28530159E+01    1.10762599E-01 
   1.55841858E+01    2.42956276E-01 
S    2    1.000000
   6.20671385E+00    4.14402634E-01 
   2.57648965E+00    2.37449687E-01 
S    1    1.000000
   5.76963394E-01    1.00000000E+00 
S    1    1.000000
   2.29728314E-01    1.00000000E+00 
S    1    1.000000
   9.51644400E-02    1.00000000E+00 
S    1    1.000000
   4.84754014E-02    1.00000000E+00 
P    4    1.000000
   3.46972322E+01    5.33336578E-03 
   7.95826228E+00    3.58641091E-02 
   2.37808269E+00    1.42158733E-01 
   8.14332082E-01    3.42704718E-01 
P    1    1.000000
   2.88875473E-01    4.64458224E-01 
P    1    1.000000
   1.00568237E-01    2.49557899E-01 
D    1    1.000000
   1.09700000E+00    1.00000000E+00 
D    1    1.000000
   3.18000000E-01    1.00000000E+00 
F    1    1.000000
   7.61000000E-01    1.00000000E+00 
****
C    0
S    6    1.000000
   1.35753497E+04    2.22458144E-04 
   2.03523337E+03    1.72327383E-03 
   4.63225624E+02    8.92557153E-03 
   1.31200196E+02    3.57279845E-02 
   4.28530159E+01    1.10762599E-01 
   1.55841858E+01    2.42956276E-01 
S    2    1.000000
   6.20671385E+00    4.14402634E-01 
   2.57648965E+00    2.37449687E-01 
S    1    1.000000
   5.76963394E-01    1.00000000E+00 
S    1    1.000000
   2.29728314E-01    1.00000000E+00 
S    1    1.000000
   9.51644400E-02    1.00000000E+00 
S    1    1.000000
   4.84754014E-02    1.00000000E+00 
P    4    1.000000
   3.46972322E+01    5.33336578E-03 
   7.95826228E+00    3.58641091E-02 
   2.37808269E+00    1.42158733E-01 
   8.14332082E-01    3.42704718E-01 
P    1    1.000000
   2.88875473E-01    4.64458224E-01 
P    1    1.000000
   1.00568237E-01    2.49557899E-01 
D    1    1.000000
   1.09700000E+00    1.00000000E+00 
D    1    1.000000
   3.18000000E-01    1.00000000E+00 
F    1    1.000000
   7.61000000E-01    1.00000000E+00 
****
O    0
S    6    1.000000
   2.70323826E+04    2.17263025E-04 
   4.05238714E+03    1.68386622E-03 
   9.22327227E+02    8.73956163E-03 
   2.61240710E+02    3.52399688E-02 
   8.53546414E+01    1.11535191E-01 
   3.10350352E+01    2.55889540E-01 
S    2    1.000000
   1.22608607E+01    3.97687309E-01 
   4.99870760E+00    2.46278494E-01 
S    1    1.000000
   1.17031082E+00    1.00000000E+00 
S    1    1.000000
   4.64747410E-01    1.00000000E+00 
S    1    1.000000
   1.85045364E-01    1.00000000E+00 
S    1    1.000000
   7.02880263E-02    1.00000000E+00 
P    4    1.000000
   6.32749548E+01    6.06851034E-03 
   1.46270494E+01    4.19125758E-02 
   4.45012235E+00    1.61538411E-01 
   1.52757996E+00    3.57069513E-01 
P    1    1.000000
   5.29351179E-01    4.47942075E-01 
P    1    1.000000
   1.74784213E-01    2.44460697E-01 
P    1    1.000000
   5.11127457E-02    1.00000000E+00 
D    1    1.000000
   2.31400000E+00    1.00000000E+00 
D    1    1.000000
   6.45000000E-01    1.00000000E+00 
F    1    1.000000
   1.42800000E+00    1.00000000E+00 
****
H    0
S    3    1.000000
   3.40613410E+01    6.02519780E-03 
   5.12357460E+00    4.50210940E-02 
   1.16466260E+00    2.01897260E-01 
S    1    1.000000
   3.27230410E-01    1.00000000E+00 
S    1    1.000000
   1.03072410E-01    1.00000000E+00 
P    1    1.000000
   8.00000000E-01    1.00000000E+00 
****
O    0
S    6    1.000000
   2.70323826E+04    2.17263025E-04 
   4.05238714E+03    1.68386622E-03 
   9.22327227E+02    8.73956163E-03 
   2.61240710E+02    3.52399688E-02 
   8.53546414E+01    1.11535191E-01 
   3.10350352E+01    2.55889540E-01 
S    2    1.000000
   1.22608607E+01    3.97687309E-01 
   4.99870760E+00    2.46278494E-01 
S    1    1.000000
   1.17031082E+00    1.00000000E+00 
S    1    1.000000
   4.64747410E-01    1.00000000E+00 
S    1    1.000000
   1.85045364E-01    1.00000000E+00 
S    1    1.000000
   7.02880263E-02    1.00000000E+00 
P    4    1.000000
   6.32749548E+01    6.06851034E-03 
   1.46270494E+01    4.19125758E-02 
   4.45012235E+00    1.61538411E-01 
   1.52757996E+00    3.57069513E-01 
P    1    1.000000
   5.29351179E-01    4.47942075E-01 
P    1    1.000000
   1.74784213E-01    2.44460697E-01 
P    1    1.000000
   5.11127457E-02    1.00000000E+00 
D    1    1.000000
   2.31400000E+00    1.00000000E+00 
D    1    1.000000
   6.45000000E-01    1.00000000E+00 
F    1    1.000000
   1.42800000E+00    1.00000000E+00 
****
H    0
S    3    1.000000
   3.40613410E+01    6.02519780E-03 
   5.12357460E+00    4.50210940E-02 
   1.16466260E+00    2.01897260E-01 
S    1    1.000000
   3.27230410E-01    1.00000000E+00 
S    1    1.000000
   1.03072410E-01    1.00000000E+00 
P    1    1.000000
   8.00000000E-01    1.00000000E+00 
****
H    0
S    3    1.000000
   3.40613410E+01    6.02519780E-03 
   5.12357460E+00    4.50210940E-02 
   1.16466260E+00    2.01897260E-01 
S    1    1.000000
   3.27230410E-01    1.00000000E+00 
S    1    1.000000
   1.03072410E-01    1.00000000E+00 
P    1    1.000000
   8.00000000E-01    1.00000000E+00 
****
O    0
S    6    1.000000
   2.70323826E+04    2.17263025E-04 
   4.05238714E+03    1.68386622E-03 
   9.22327227E+02    8.73956163E-03 
   2.61240710E+02    3.52399688E-02 
   8.53546414E+01    1.11535191E-01 
   3.10350352E+01    2.55889540E-01 
S    2    1.000000
   1.22608607E+01    3.97687309E-01 
   4.99870760E+00    2.46278494E-01 
S    1    1.000000
   1.17031082E+00    1.00000000E+00 
S    1    1.000000
   4.64747410E-01    1.00000000E+00 
S    1    1.000000
   1.85045364E-01    1.00000000E+00 
S    1    1.000000
   7.02880263E-02    1.00000000E+00 
P    4    1.000000
   6.32749548E+01    6.06851034E-03 
   1.46270494E+01    4.19125758E-02 
   4.45012235E+00    1.61538411E-01 
   1.52757996E+00    3.57069513E-01 
P    1    1.000000
   5.29351179E-01    4.47942075E-01 
P    1    1.000000
   1.74784213E-01    2.44460697E-01 
P    1    1.000000
   5.11127457E-02    1.00000000E+00 
D    1    1.000000
   2.31400000E+00    1.00000000E+00 
D    1    1.000000
   6.45000000E-01    1.00000000E+00 
F    1    1.000000
   1.42800000E+00    1.00000000E+00 
****
H    0
S    3    1.000000
   3.40613410E+01    6.02519780E-03 
   5.12357460E+00    4.50210940E-02 
   1.16466260E+00    2.01897260E-01 
S    1    1.000000
   3.27230410E-01    1.00000000E+00 
S    1    1.000000
   1.03072410E-01    1.00000000E+00 
P    1    1.000000
   8.00000000E-01    1.00000000E+00 
****
O    0
S    6    1.000000
   2.70323826E+04    2.17263025E-04 
   4.05238714E+03    1.68386622E-03 
   9.22327227E+02    8.73956163E-03 
   2.61240710E+02    3.52399688E-02 
   8.53546414E+01    1.11535191E-01 
   3.10350352E+01    2.55889540E-01 
S    2    1.000000
   1.22608607E+01    3.97687309E-01 
   4.99870760E+00    2.46278494E-01 
S    1    1.000000
   1.17031082E+00    1.00000000E+00 
S    1    1.000000
   4.64747410E-01    1.00000000E+00 
S    1    1.000000
   1.85045364E-01    1.00000000E+00 
S    1    1.000000
   7.02880263E-02    1.00000000E+00 
P    4    1.000000
   6.32749548E+01    6.06851034E-03 
   1.46270494E+01    4.19125758E-02 
   4.45012235E+00    1.61538411E-01 
   1.52757996E+00    3.57069513E-01 
P    1    1.000000
   5.29351179E-01    4.47942075E-01 
P    1    1.000000
   1.74784213E-01    2.44460697E-01 
P    1    1.000000
   5.11127457E-02    1.00000000E+00 
D    1    1.000000
   2.31400000E+00    1.00000000E+00 
D    1    1.000000
   6.45000000E-01    1.00000000E+00 
F    1    1.000000
   1.42800000E+00    1.00000000E+00 
****
O    0
S    6    1.000000
   2.70323826E+04    2.17263025E-04 
   4.05238714E+03    1.68386622E-03 
   9.22327227E+02    8.73956163E-03 
   2.61240710E+02    3.52399688E-02 
   8.53546414E+01    1.11535191E-01 
   3.10350352E+01    2.55889540E-01 
S    2    1.000000
   1.22608607E+01    3.97687309E-01 
   4.99870760E+00    2.46278494E-01 
S    1    1.000000
   1.17031082E+00    1.00000000E+00 
S    1    1.000000
   4.64747410E-01    1.00000000E+00 
S    1    1.000000
   1.85045364E-01    1.00000000E+00 
S    1    1.000000
   7.02880263E-02    1.00000000E+00 
P    4    1.000000
   6.32749548E+01    6.06851034E-03 
   1.46270494E+01    4.19125758E-02 
   4.45012235E+00    1.61538411E-01 
   1.52757996E+00    3.57069513E-01 
P    1    1.000000
   5.29351179E-01    4.47942075E-01 
P    1    1.000000
   1.74784213E-01    2.44460697E-01 
P    1    1.000000
   5.11127457E-02    1.00000000E+00 
D    1    1.000000
   2.31400000E+00    1.00000000E+00 
D    1    1.000000
   6.45000000E-01    1.00000000E+00 
F    1    1.000000
   1.42800000E+00    1.00000000E+00 
****
H    0
S    3    1.000000
   3.40613410E+01    6.02519780E-03 
   5.12357460E+00    4.50210940E-02 
   1.16466260E+00    2.01897260E-01 
S    1    1.000000
   3.27230410E-01    1.00000000E+00 
S    1    1.000000
   1.03072410E-01    1.00000000E+00 
P    1    1.000000
   8.00000000E-01    1.00000000E+00 
****
H    0
S    3    1.000000
   3.40613410E+01    6.02519780E-03 
   5.12357460E+00    4.50210940E-02 
   1.16466260E+00    2.01897260E-01 
S    1    1.000000
   3.27230410E-01    1.00000000E+00 
S    1    1.000000
   1.03072410E-01    1.00000000E+00 
P    1    1.000000
   8.00000000E-01    1.00000000E+00 
****
H    0
S    3    1.000000
   3.40613410E+01    6.02519780E-03 
   5.12357460E+00    4.50210940E-02 
   1.16466260E+00    2.01897260E-01 
S    1    1.000000
   3.27230410E-01    1.00000000E+00 
S    1    1.000000
   1.03072410E-01    1.00000000E+00 
P    1    1.000000
   8.00000000E-01    1.00000000E+00 
****
H    0
S    3    1.000000
   3.40613410E+01    6.02519780E-03 
   5.12357460E+00    4.50210940E-02 
   1.16466260E+00    2.01897260E-01 
S    1    1.000000
   3.27230410E-01    1.00000000E+00 
S    1    1.000000
   1.03072410E-01    1.00000000E+00 
P    1    1.000000
   8.00000000E-01    1.00000000E+00 
****
C    0
S    6    1.000000
   1.35753497E+04    2.22458144E-04 
   2.03523337E+03    1.72327383E-03 
   4.63225624E+02    8.92557153E-03 
   1.31200196E+02    3.57279845E-02 
   4.28530159E+01    1.10762599E-01 
   1.55841858E+01    2.42956276E-01 
S    2    1.000000
   6.20671385E+00    4.14402634E-01 
   2.57648965E+00    2.37449687E-01 
S    1    1.000000
   5.76963394E-01    1.00000000E+00 
S    1    1.000000
   2.29728314E-01    1.00000000E+00 
S    1    1.000000
   9.51644400E-02    1.00000000E+00 
S    1    1.000000
   4.84754014E-02    1.00000000E+00 
P    4    1.000000
   3.46972322E+01    5.33336578E-03 
   7.95826228E+00    3.58641091E-02 
   2.37808269E+00    1.42158733E-01 
   8.14332082E-01    3.42704718E-01 
P    1    1.000000
   2.88875473E-01    4.64458224E-01 
P    1    1.000000
   1.00568237E-01    2.49557899E-01 
D    1    1.000000
   1.09700000E+00    1.00000000E+00 
D    1    1.000000
   3.18000000E-01    1.00000000E+00 
F    1    1.000000
   7.61000000E-01    1.00000000E+00 
****
H    0
S    3    1.000000
   3.40613410E+01    6.02519780E-03 
   5.12357460E+00    4.50210940E-02 
   1.16466260E+00    2.01897260E-01 
S    1    1.000000
   3.27230410E-01    1.00000000E+00 
S    1    1.000000
   1.03072410E-01    1.00000000E+00 
P    1    1.000000
   8.00000000E-01    1.00000000E+00 
****
H    0
S    3    1.000000
   3.40613410E+01    6.02519780E-03 
   5.12357460E+00    4.50210940E-02 
   1.16466260E+00    2.01897260E-01 
S    1    1.000000
   3.27230410E-01    1.00000000E+00 
S    1    1.000000
   1.03072410E-01    1.00000000E+00 
P    1    1.000000
   8.00000000E-01    1.00000000E+00 
****
H    0
S    3    1.000000
   3.40613410E+01    6.02519780E-03 
   5.12357460E+00    4.50210940E-02 
   1.16466260E+00    2.01897260E-01 
S    1    1.000000
   3.27230410E-01    1.00000000E+00 
S    1    1.000000
   1.03072410E-01    1.00000000E+00 
P    1    1.000000
   8.00000000E-01    1.00000000E+00 
****
O    0
S    6    1.000000
   2.70323826E+04    2.17263025E-04 
   4.05238714E+03    1.68386622E-03 
   9.22327227E+02    8.73956163E-03 
   2.61240710E+02    3.52399688E-02 
   8.53546414E+01    1.11535191E-01 
   3.10350352E+01    2.55889540E-01 
S    2    1.000000
   1.22608607E+01    3.97687309E-01 
   4.99870760E+00    2.46278494E-01 
S    1    1.000000
   1.17031082E+00    1.00000000E+00 
S    1    1.000000
   4.64747410E-01    1.00000000E+00 
S    1    1.000000
   1.85045364E-01    1.00000000E+00 
S    1    1.000000
   7.02880263E-02    1.00000000E+00 
P    4    1.000000
   6.32749548E+01    6.06851034E-03 
   1.46270494E+01    4.19125758E-02 
   4.45012235E+00    1.61538411E-01 
   1.52757996E+00    3.57069513E-01 
P    1    1.000000
   5.29351179E-01    4.47942075E-01 
P    1    1.000000
   1.74784213E-01    2.44460697E-01 
P    1    1.000000
   5.11127457E-02    1.00000000E+00 
D    1    1.000000
   2.31400000E+00    1.00000000E+00 
D    1    1.000000
   6.45000000E-01    1.00000000E+00 
F    1    1.000000
   1.42800000E+00    1.00000000E+00 
****
C    0
S    6    1.000000
   1.35753497E+04    2.22458144E-04 
   2.03523337E+03    1.72327383E-03 
   4.63225624E+02    8.92557153E-03 
   1.31200196E+02    3.57279845E-02 
   4.28530159E+01    1.10762599E-01 
   1.55841858E+01    2.42956276E-01 
S    2    1.000000
   6.20671385E+00    4.14402634E-01 
   2.57648965E+00    2.37449687E-01 
S    1    1.000000
   5.76963394E-01    1.00000000E+00 
S    1    1.000000
   2.29728314E-01    1.00000000E+00 
S    1    1.000000
   9.51644400E-02    1.00000000E+00 
S    1    1.000000
   4.84754014E-02    1.00000000E+00 
P    4    1.000000
   3.46972322E+01    5.33336578E-03 
   7.95826228E+00    3.58641091E-02 
   2.37808269E+00    1.42158733E-01 
   8.14332082E-01    3.42704718E-01 
P    1    1.000000
   2.88875473E-01    4.64458224E-01 
P    1    1.000000
   1.00568237E-01    2.49557899E-01 
D    1    1.000000
   1.09700000E+00    1.00000000E+00 
D    1    1.000000
   3.18000000E-01    1.00000000E+00 
F    1    1.000000
   7.61000000E-01    1.00000000E+00 
****
H    0
S    3    1.000000
   3.40613410E+01    6.02519780E-03 
   5.12357460E+00    4.50210940E-02 
   1.16466260E+00    2.01897260E-01 
S    1    1.000000
   3.27230410E-01    1.00000000E+00 
S    1    1.000000
   1.03072410E-01    1.00000000E+00 
P    1    1.000000
   8.00000000E-01    1.00000000E+00 
****
H    0
S    3    1.000000
   3.40613410E+01    6.02519780E-03 
   5.12357460E+00    4.50210940E-02 
   1.16466260E+00    2.01897260E-01 
S    1    1.000000
   3.27230410E-01    1.00000000E+00 
S    1    1.000000
   1.03072410E-01    1.00000000E+00 
P    1    1.000000
   8.00000000E-01    1.00000000E+00 
****
H    0
S    3    1.000000
   3.40613410E+01    6.02519780E-03 
   5.12357460E+00    4.50210940E-02 
   1.16466260E+00    2.01897260E-01 
S    1    1.000000
   3.27230410E-01    1.00000000E+00 
S    1    1.000000
   1.03072410E-01    1.00000000E+00 
P    1    1.000000
   8.00000000E-01    1.00000000E+00 
****
$end
-----------------------------------------------------------------------
 There are 351 shells and 873 basis functions

 Total QAlloc Memory Limit  64000 MB
 Mega-Array Size      1956 MB
 MEM_STATIC part      2000 MB

 User-specified dielectric constants (eps_0 = 78.39, eps_inf = 1.78)
 Using C-PCM dielectric factor f(eps) = (eps-1)/eps = 0.987243
 Static dielectric constant eps = 78.39
 Discretize the solute cavity surface with Lebedev spheres
	Using 110 Lebedev grid points for each H atom
	Using 194 Lebedev grid points for other atoms
	Atomic van der Waals radii (Bondi set) will be scaled by 1.20
 Using smooth SwiG surface discretization
 Remove points where switching function is < 1.0e-08
 Keep 2503 surface tesserae and discard 3693 interior tesserae
 Molecular Surface Area = 347.539 Angst**2

 A cutoff of  1.0D-12 yielded  42060 shell pairs
 There are    243366 function pairs (    307327 Cartesian)
 Smallest overlap matrix eigenvalue = 3.71E-06

 Scale SEOQF with 1.000000e-02/1.000000e-02/1.000000e-01

 Standard Electronic Orientation quadrupole field applied
 Nucleus-field energy     =    -0.0000000067 hartrees
 Guess from superposition of atomic densities
 Warning:  Energy on first SCF cycle will be non-variational
 SAD guess density has 172.000000 electrons

 -----------------------------------------------------------------------
  General SCF calculation program by
  Eric Jon Sundstrom, Paul Horn, Yuezhi Mao, Dmitri Zuev, Alec White,
  David Stuck, Shaama M.S., Shane Yost, Joonho Lee, David Small,
  Daniel Levine, Susi Lehtola, Hugh Burton, Evgeny Epifanovsky,
  Bang C. Huynh
 -----------------------------------------------------------------------
 Exchange:     0.1900 Hartree-Fock + 0.3500 B88 + 0.4600 muB88 + LR-HF
 Correlation:  0.1900 VWN5 + 0.8100 LYP
 Using SG-1 standard quadrature grid
 using 16 threads for integral computing
 -------------------------------------------------------
 OpenMP Integral computing Module                
 Release: version 1.0, May 2013, Q-Chem Inc. Pittsburgh 
 -------------------------------------------------------
 C-PCM solvent model [f = (eps-1)/eps], solve by matrix inversion
 DFT Correlation          Energy =  -6.99415933396372
 DFT Exchange             Energy = -106.75249836970194
 HF Exchange              Energy = -43.87146507829560
 One-Electron             Energy = -5550.63265009763290
 SCRF wf-dependent energy Energy =   0.00000000000000
 Total Coulomb            Energy = 2530.08169808183993
 Nuclear repulsion Energy = 1988.44098804859391
 A restricted SCF calculation will be
 performed using DIIS
 SCF converges when DIIS error is below 1.0e-08
 DFT Correlation          Energy =  -6.99415933396372
 DFT Exchange             Energy = -106.75249836970194
 HF Exchange              Energy = -43.87146507829560
 One-Electron             Energy = -5550.63265009763290
 SCRF wf-dependent energy Energy =   0.00000000000000
 Total Coulomb            Energy = 2530.08169808183993
 ---------------------------------------
  Cycle       Energy         DIIS error
 ---------------------------------------
 DFT Correlation          Energy =  -7.08558434977997
 DFT Exchange             Energy = -109.04835771422749
 HF Exchange              Energy = -42.41732782855212
 One-Electron             Energy = -5576.97373857397724
 SCRF wf-dependent energy Energy =   0.98518970091754
 Total Coulomb            Energy = 2563.70340448739353
 Nuclear repulsion Energy = 1988.44098804859391
    1   -1189.7280867492      1.95e-02  
 DFT Correlation          Energy =  -7.02417241528568
 DFT Exchange             Energy = -107.21947594479042
 HF Exchange              Energy = -41.90494944567762
 One-Electron             Energy = -5561.46297912768932
 SCRF wf-dependent energy Energy =   1.73582371240650
 Total Coulomb            Energy = 2545.18368071550685
 Nuclear repulsion Energy = 1988.44098804859391
    2   -1182.3954262296      2.05e-03  
 DFT Correlation          Energy =  -7.05087299823363
 DFT Exchange             Energy = -108.08837927754350
 HF Exchange              Energy = -42.16996378936624
 One-Electron             Energy = -5565.98764031171868
 SCRF wf-dependent energy Energy =   0.62067613392378
 Total Coulomb            Energy = 2551.53023152219612
 Nuclear repulsion Energy = 1988.44098804859391
    3   -1182.2510844569      2.62e-03  
 DFT Correlation          Energy =  -7.05356134720138
 DFT Exchange             Energy = -108.13714990506566
 HF Exchange              Energy = -42.18097627290408
 One-Electron             Energy = -5568.03842679698664
 SCRF wf-dependent energy Energy =   1.01755273781487
 Total Coulomb            Energy = 2553.23292614546972
 Nuclear repulsion Energy = 1988.44098804859391
    4   -1182.7049606721      4.58e-04  
 DFT Correlation          Energy =  -7.05300887060832
 DFT Exchange             Energy = -108.12025243036295
 HF Exchange              Energy = -42.17733116242245
 One-Electron             Energy = -5567.83915343876561
 SCRF wf-dependent energy Energy =   0.99048687854793
 Total Coulomb            Energy = 2553.03812038930300
 Nuclear repulsion Energy = 1988.44098804859391
    5   -1182.7186473903      1.51e-04  
 DFT Correlation          Energy =  -7.05278071181423
 DFT Exchange             Energy = -108.11940466756514
 HF Exchange              Energy = -42.17769374711271
 One-Electron             Energy = -5567.65819749241200
 SCRF wf-dependent energy Energy =   0.95922092474871
 Total Coulomb            Energy = 2552.88752004376192
 Nuclear repulsion Energy = 1988.44098804859391
    6   -1182.7201505857      5.14e-05  
 DFT Correlation          Energy =  -7.05276535301648
 DFT Exchange             Energy = -108.11786879173931
 HF Exchange              Energy = -42.17740317053880
 One-Electron             Energy = -5567.66184993676325
 SCRF wf-dependent energy Energy =   0.96188162300177
 Total Coulomb            Energy = 2552.88665330196091
 Nuclear repulsion Energy = 1988.44098804859391
    7   -1182.7203476018      1.33e-05  
 DFT Correlation          Energy =  -7.05281681957810
 DFT Exchange             Energy = -108.11938119905486
 HF Exchange              Energy = -42.17785156038925
 One-Electron             Energy = -5567.68575338533628
 SCRF wf-dependent energy Energy =   0.96326352249662
 Total Coulomb            Energy = 2552.91118444820631
 Nuclear repulsion Energy = 1988.44098804859391
    8   -1182.7203642785      3.86e-06  
 DFT Correlation          Energy =  -7.05280648352480
 DFT Exchange             Energy = -108.11902782052786
 HF Exchange              Energy = -42.17778081014804
 One-Electron             Energy = -5567.67924022392162
 SCRF wf-dependent energy Energy =   0.96236642060376
 Total Coulomb            Energy = 2552.90513313776410
 Nuclear repulsion Energy = 1988.44098804859391
    9   -1182.7203669451      1.73e-06  
 DFT Correlation          Energy =  -7.05280523065144
 DFT Exchange             Energy = -108.11905846588257
 HF Exchange              Energy = -42.17779926516526
 One-Electron             Energy = -5567.67802163894066
 SCRF wf-dependent energy Energy =   0.96196842470818
 Total Coulomb            Energy = 2552.90436025135705
 Nuclear repulsion Energy = 1988.44098804859391
   10   -1182.7203677312      7.20e-07  
 DFT Correlation          Energy =  -7.05280659476053
 DFT Exchange             Energy = -108.11906318983715
 HF Exchange              Energy = -42.17780008993680
 One-Electron             Energy = -5567.67841041053271
 SCRF wf-dependent energy Energy =   0.96194655061458
 Total Coulomb            Energy = 2552.90477777841716
 Nuclear repulsion Energy = 1988.44098804859391
   11   -1182.7203678760      2.99e-07  
 DFT Correlation          Energy =  -7.05280676179641
 DFT Exchange             Energy = -108.11907540053019
 HF Exchange              Energy = -42.17780342122830
 One-Electron             Energy = -5567.67866021689315
 SCRF wf-dependent energy Energy =   0.96201839338983
 Total Coulomb            Energy = 2552.90497144755000
 Nuclear repulsion Energy = 1988.44098804859391
   12   -1182.7203679074      1.31e-07  
 DFT Correlation          Energy =  -7.05280661952617
 DFT Exchange             Energy = -108.11907112882825
 HF Exchange              Energy = -42.17780204500520
 One-Electron             Energy = -5567.67856646874679
 SCRF wf-dependent energy Energy =   0.96200978372030
 Total Coulomb            Energy = 2552.90488051780221
 Nuclear repulsion Energy = 1988.44098804859391
   13   -1182.7203679109      6.55e-08  
 DFT Correlation          Energy =  -7.05280664500237
 DFT Exchange             Energy = -108.11907174149214
 HF Exchange              Energy = -42.17780213442219
 One-Electron             Energy = -5567.67864809728690
 SCRF wf-dependent energy Energy =   0.96204588932414
 Total Coulomb            Energy = 2552.90492676828308
 Nuclear repulsion Energy = 1988.44098804859391
   14   -1182.7203679120      2.21e-08  
 DFT Correlation          Energy =  -7.05280665638696
 DFT Exchange             Energy = -108.11907199323018
 HF Exchange              Energy = -42.17780215544761
 One-Electron             Energy = -5567.67867526599912
 SCRF wf-dependent energy Energy =   0.96205539006905
 Total Coulomb            Energy = 2552.90494472011369
 Nuclear repulsion Energy = 1988.44098804859391
   15   -1182.7203679120      1.47e-08  
   16   -1182.7203679123      5.09e-09  Convergence criterion met
 ---------------------------------------
 DFT Correlation          Energy =  -7.05280665638696
 DFT Exchange             Energy = -108.11907199323018
 HF Exchange              Energy = -42.17780215544761
 One-Electron             Energy = -5567.67867526599912
 SCRF wf-dependent energy Energy =   0.96205539006905
 Total Coulomb            Energy = 2552.90494472011369
 Final Alpha MO Eigenvalues
            1           2           3           4           5           6
    1 -19.3039890 -19.2480187 -19.2455924 -19.2423281 -19.2418197 -19.2372431
            7           8           9          10          11          12
    1 -19.1357031 -10.3520811 -10.3447882 -10.3408923 -10.3385259 -10.3225275
           13          14          15          16          17          18
    1 -10.3199666 -10.3185199 -10.3154905 -10.2939708 -10.2921577 -10.2814707
           19          20          21          22          23          24
    1 -10.2766355 -10.2749634 -10.2614216 -10.2560400 -10.2547055 -10.2533063
           25          26          27          28          29          30
    1  -1.2296531  -1.1735433  -1.1631903  -1.1585353  -1.1539559  -1.1374014
           31          32          33          34          35          36
    1  -1.0638322  -0.9711341  -0.9518428  -0.9016727  -0.8875963  -0.8495110
           37          38          39          40          41          42
    1  -0.8454067  -0.8242968  -0.7948718  -0.7802379  -0.7612356  -0.7443619
           43          44          45          46          47          48
    1  -0.7100850  -0.7023530  -0.6875011  -0.6702465  -0.6378532  -0.6361417
           49          50          51          52          53          54
    1  -0.6209273  -0.5996628  -0.5914799  -0.5849059  -0.5739883  -0.5735006
           55          56          57          58          59          60
    1  -0.5616230  -0.5548435  -0.5434829  -0.5411967  -0.5314998  -0.5146740
           61          62          63          64          65          66
    1  -0.5142848  -0.5086337  -0.5018164  -0.4964484  -0.4948584  -0.4873933
           67          68          69          70          71          72
    1  -0.4845407  -0.4781908  -0.4708179  -0.4564608  -0.4503349  -0.4444867
           73          74          75          76          77          78
    1  -0.4344526  -0.4320411  -0.4283411  -0.4196554  -0.4180290  -0.4093422
           79          80          81          82          83          84
    1  -0.4083021  -0.3815783  -0.3365372  -0.3169001  -0.3054208  -0.2914736
           85          86          87          88          89          90
    1  -0.2868128  -0.2370972  -0.0711019   0.0179314   0.0275613   0.0316897
           91          92          93          94          95          96
    1   0.0337129   0.0398328   0.0447254   0.0463869   0.0465546   0.0595303
           97          98          99         100         101         102
    1   0.0612109   0.0641485   0.0721270   0.0754133   0.0799698   0.0869939
          103         104         105         106         107         108
    1   0.0897621   0.0902836   0.1008494   0.1024113   0.1067504   0.1092084
          109         110         111         112         113         114
    1   0.1120482   0.1138406   0.1195750   0.1255939   0.1320246   0.1389160
          115         116         117         118         119         120
    1   0.1441955   0.1488832   0.1527848   0.1545787   0.1569691   0.1607144
          121         122         123         124         125         126
    1   0.1695322   0.1722069   0.1765589   0.1825828   0.1865109   0.1890964
          127         128         129         130         131         132
    1   0.1950537   0.1977196   0.2034194   0.2090604   0.2153882   0.2156534
          133         134         135         136         137         138
    1   0.2171682   0.2231457   0.2289795   0.2299054   0.2344946   0.2385859
          139         140         141         142         143         144
    1   0.2418651   0.2438862   0.2527099   0.2528997   0.2558846   0.2597153
          145         146         147         148         149         150
    1   0.2618913   0.2711026   0.2753143   0.2809624   0.2839530   0.2852400
          151         152         153         154         155         156
    1   0.2902068   0.2928338   0.2961908   0.2997876   0.3043473   0.3084431
          157         158         159         160         161         162
    1   0.3112776   0.3123224   0.3202938   0.3218370   0.3272148   0.3283507
          163         164         165         166         167         168
    1   0.3367273   0.3377847   0.3406116   0.3460968   0.3479846   0.3534124
          169         170         171         172         173         174
    1   0.3572068   0.3605911   0.3653567   0.3693478   0.3721366   0.3767167
          175         176         177         178         179         180
    1   0.3797112   0.3837751   0.3886176   0.3910101   0.3954240   0.3987926
          181         182         183         184         185         186
    1   0.4005542   0.4029886   0.4147876   0.4208148   0.4229559   0.4303513
          187         188         189         190         191         192
    1   0.4343358   0.4353605   0.4406020   0.4472209   0.4486080   0.4539539
          193         194         195         196         197         198
    1   0.4546750   0.4598104   0.4630219   0.4653396   0.4672079   0.4700253
          199         200         201         202         203         204
    1   0.4755793   0.4790413   0.4851308   0.4898583   0.4907977   0.4939378
          205         206         207         208         209         210
    1   0.4982306   0.5004656   0.5017154   0.5095735   0.5180562   0.5212422
          211         212         213         214         215         216
    1   0.5235559   0.5264327   0.5279625   0.5358522   0.5372282   0.5446920
          217         218         219         220         221         222
    1   0.5559160   0.5602117   0.5624233   0.5710281   0.5759523   0.5789647
          223         224         225         226         227         228
    1   0.5851846   0.5901398   0.5913974   0.6002732   0.6061597   0.6105697
          229         230         231         232         233         234
    1   0.6121241   0.6164271   0.6212536   0.6363271   0.6388690   0.6403070
          235         236         237         238         239         240
    1   0.6425402   0.6466538   0.6530658   0.6598070   0.6612280   0.6652676
          241         242         243         244         245         246
    1   0.6690598   0.6732822   0.6778401   0.6820928   0.6844362   0.6943780
          247         248         249         250         251         252
    1   0.7012366   0.7101807   0.7109300   0.7143720   0.7210255   0.7231690
          253         254         255         256         257         258
    1   0.7288153   0.7356832   0.7440782   0.7493407   0.7538368   0.7638952
          259         260         261         262         263         264
    1   0.7671509   0.7702936   0.7723918   0.7761020   0.7789447   0.7814543
          265         266         267         268         269         270
    1   0.7841092   0.7930498   0.7980487   0.8005747   0.8061590   0.8116363
          271         272         273         274         275         276
    1   0.8133814   0.8155892   0.8203589   0.8277331   0.8430088   0.8440172
          277         278         279         280         281         282
    1   0.8454818   0.8482286   0.8585501   0.8637508   0.8710310   0.8814835
          283         284         285         286         287         288
    1   0.8857385   0.8942690   0.9034212   0.9072324   0.9077366   0.9111706
          289         290         291         292         293         294
    1   0.9223421   0.9303619   0.9369848   0.9464735   0.9504111   0.9537956
          295         296         297         298         299         300
    1   0.9712886   0.9820129   0.9876473   0.9908560   1.0077768   1.0158808
          301         302         303         304         305         306
    1   1.0314051   1.0361733   1.0439959   1.0506013   1.0525912   1.0623138
          307         308         309         310         311         312
    1   1.0710545   1.0749668   1.0790888   1.0836980   1.0997487   1.1131562
          313         314         315         316         317         318
    1   1.1210526   1.1239445   1.1285482   1.1326466   1.1372732   1.1505894
          319         320         321         322         323         324
    1   1.1542858   1.1605319   1.1748151   1.1867138   1.1893306   1.1917045
          325         326         327         328         329         330
    1   1.1947462   1.2072593   1.2128539   1.2161335   1.2202709   1.2224201
          331         332         333         334         335         336
    1   1.2274901   1.2353357   1.2502089   1.2547029   1.2649864   1.2880749
          337         338         339         340         341         342
    1   1.3015105   1.3025128   1.3113450   1.3194570   1.3224000   1.3326233
          343         344         345         346         347         348
    1   1.3361334   1.3470182   1.3660418   1.3777962   1.3885063   1.4008971
          349         350         351         352         353         354
    1   1.4018395   1.4095842   1.4188466   1.4279470   1.4420628   1.4485284
          355         356         357         358         359         360
    1   1.4498144   1.4627124   1.4794040   1.4900247   1.4938039   1.4962695
          361         362         363         364         365         366
    1   1.5036176   1.5121966   1.5176629   1.5205828   1.5437548   1.5494819
          367         368         369         370         371         372
    1   1.5526180   1.5576766   1.5637349   1.5801378   1.5821227   1.5830414
          373         374         375         376         377         378
    1   1.5848399   1.5920040   1.5945890   1.6029863   1.6093183   1.6125894
          379         380         381         382         383         384
    1   1.6205187   1.6234628   1.6380562   1.6457053   1.6553347   1.6643654
          385         386         387         388         389         390
    1   1.6689762   1.6802300   1.6905619   1.6983159   1.7024819   1.7134425
          391         392         393         394         395         396
    1   1.7201190   1.7208840   1.7245218   1.7359738   1.7373961   1.7398870
          397         398         399         400         401         402
    1   1.7435594   1.7602858   1.7619421   1.7668432   1.7827549   1.7925700
          403         404         405         406         407         408
    1   1.7962995   1.8050098   1.8142423   1.8384452   1.8409467   1.8419406
          409         410         411         412         413         414
    1   1.8464545   1.8608868   1.8730620   1.8753274   1.8881957   1.9033869
          415         416         417         418         419         420
    1   1.9139183   1.9189252   1.9251698   1.9285530   1.9377457   1.9504461
          421         422         423         424         425         426
    1   1.9514488   1.9693418   1.9785456   1.9813721   2.0042500   2.0058544
          427         428         429         430         431         432
    1   2.0308462   2.0328873   2.0365055   2.0369685   2.0452464   2.0621399
          433         434         435         436         437         438
    1   2.0685481   2.0738732   2.0804936   2.0806877   2.0854200   2.1029232
          439         440         441         442         443         444
    1   2.1121627   2.1152180   2.1290049   2.1319045   2.1458398   2.1503169
          445         446         447         448         449         450
    1   2.1596752   2.1685546   2.1819114   2.1918049   2.1956966   2.2038156
          451         452         453         454         455         456
    1   2.2085199   2.2119038   2.2153292   2.2200548   2.2378438   2.2390969
          457         458         459         460         461         462
    1   2.2494538   2.2522542   2.2550624   2.2704896   2.2782164   2.2941225
          463         464         465         466         467         468
    1   2.2976679   2.3082799   2.3250616   2.3382441   2.3395958   2.3487961
          469         470         471         472         473         474
    1   2.3515323   2.3523742   2.3638582   2.3692965   2.3869989   2.3922838
          475         476         477         478         479         480
    1   2.4070978   2.4213695   2.4243022   2.4319833   2.4490428   2.4535569
          481         482         483         484         485         486
    1   2.4641675   2.4661176   2.4706276   2.4838869   2.4969522   2.5024273
          487         488         489         490         491         492
    1   2.5176737   2.5245223   2.5428682   2.5456697   2.5569314   2.5630573
          493         494         495         496         497         498
    1   2.5804816   2.5853708   2.5903895   2.5925644   2.5938382   2.6047898
          499         500         501         502         503         504
    1   2.6086493   2.6119173   2.6354899   2.6393545   2.6497524   2.6594036
          505         506         507         508         509         510
    1   2.6702865   2.6877096   2.6917513   2.6956839   2.6985805   2.6997787
          511         512         513         514         515         516
    1   2.7102401   2.7270376   2.7297670   2.7348222   2.7472342   2.7498949
          517         518         519         520         521         522
    1   2.7652229   2.7668985   2.7752620   2.7872638   2.7947285   2.8040234
          523         524         525         526         527         528
    1   2.8067986   2.8114718   2.8181009   2.8184742   2.8316009   2.8370479
          529         530         531         532         533         534
    1   2.8490416   2.8706144   2.8716615   2.8782000   2.8840213   2.8869895
          535         536         537         538         539         540
    1   2.8928455   2.8958672   2.8997336   2.9125164   2.9148742   2.9217077
          541         542         543         544         545         546
    1   2.9259753   2.9416093   2.9482994   2.9597131   2.9658692   2.9723656
          547         548         549         550         551         552
    1   2.9782883   2.9834761   2.9957033   2.9970131   3.0064234   3.0118283
          553         554         555         556         557         558
    1   3.0182588   3.0231724   3.0256650   3.0336026   3.0385603   3.0400138
          559         560         561         562         563         564
    1   3.0607032   3.0692022   3.0741799   3.0793112   3.0859099   3.0921787
          565         566         567         568         569         570
    1   3.0953240   3.1117499   3.1309862   3.1323487   3.1349527   3.1420589
          571         572         573         574         575         576
    1   3.1505606   3.1554449   3.1598193   3.1617532   3.1859637   3.1902377
          577         578         579         580         581         582
    1   3.1953668   3.2014562   3.2111864   3.2177835   3.2246718   3.2277705
          583         584         585         586         587         588
    1   3.2348417   3.2398722   3.2456527   3.2497163   3.2537017   3.2569173
          589         590         591         592         593         594
    1   3.2734928   3.2801508   3.2804579   3.2933395   3.3003568   3.3030137
          595         596         597         598         599         600
    1   3.3126639   3.3231832   3.3266670   3.3308772   3.3337582   3.3449555
          601         602         603         604         605         606
    1   3.3465980   3.3488561   3.3648149   3.3669908   3.3683637   3.3738224
          607         608         609         610         611         612
    1   3.3932380   3.3966321   3.3994220   3.4017401   3.4062990   3.4138434
          613         614         615         616         617         618
    1   3.4182854   3.4232962   3.4299316   3.4377476   3.4391962   3.4498156
          619         620         621         622         623         624
    1   3.4592628   3.4615384   3.4726825   3.4736108   3.4815093   3.4847750
          625         626         627         628         629         630
    1   3.4910540   3.4979931   3.5001243   3.5053890   3.5234110   3.5254995
          631         632         633         634         635         636
    1   3.5333649   3.5387547   3.5406711   3.5519595   3.5615647   3.5753339
          637         638         639         640         641         642
    1   3.5783473   3.5878122   3.5893221   3.5983412   3.6005930   3.6048674
          643         644         645         646         647         648
    1   3.6079809   3.6194015   3.6312845   3.6360874   3.6445619   3.6557343
          649         650         651         652         653         654
    1   3.6588507   3.6675483   3.6749435   3.6928429   3.6991972   3.7047401
          655         656         657         658         659         660
    1   3.7059873   3.7173879   3.7347379   3.7508690   3.7573623   3.7606107
          661         662         663         664         665         666
    1   3.7640037   3.7901817   3.7952982   3.8193010   3.8382389   3.8532172
          667         668         669         670         671         672
    1   3.8777987   3.8895534   3.8961056   3.9073257   3.9177497   3.9274888
          673         674         675         676         677         678
    1   3.9492375   3.9592568   3.9718708   3.9844058   4.0361990   4.0450982
          679         680         681         682         683         684
    1   4.0481285   4.0529964   4.0592919   4.0752821   4.0848814   4.1077225
          685         686         687         688         689         690
    1   4.1260149   4.1334322   4.1516050   4.1560254   4.1630654   4.2151409
          691         692         693         694         695         696
    1   4.2188725   4.2204817   4.2267050   4.2310702   4.2375394   4.2444522
          697         698         699         700         701         702
    1   4.2540668   4.2577155   4.2755435   4.2773347   4.2799166   4.2952860
          703         704         705         706         707         708
    1   4.2980773   4.3200561   4.3322005   4.3408200   4.3467803   4.3744375
          709         710         711         712         713         714
    1   4.3951749   4.4168452   4.4246485   4.4297471   4.4419911   4.4550404
          715         716         717         718         719         720
    1   4.4747355   4.4874516   4.4997016   4.5102522   4.5207321   4.5363912
          721         722         723         724         725         726
    1   4.5496786   4.5901084   4.6006053   4.6180209   4.6338547   4.6349773
          727         728         729         730         731         732
    1   4.6593682   4.6617889   4.6720173   4.6845523   4.6910617   4.6967821
          733         734         735         736         737         738
    1   4.7164410   4.7279651   4.7685879   4.8263582   4.8374809   4.8763789
          739         740         741         742         743         744
    1   4.8948157   4.9095915   4.9350388   4.9485452   4.9596934   4.9773378
          745         746         747         748         749         750
    1   5.0127556   5.0406709   5.0856533   5.0955423   5.1190866   5.1472203
          751         752         753         754         755         756
    1   5.1864478   5.1962275   5.2162545   5.2517893   5.2726013   5.2888219
          757         758         759         760         761         762
    1   5.2975478   5.3047489   5.3127009   5.3154517   5.3311506   5.3620549
          763         764         765         766         767         768
    1   5.3756680   5.3877560   5.3926481   5.4120791   5.4309608   5.4649714
          769         770         771         772         773         774
    1   5.4813866   5.5139129   5.5261593   5.5340039   5.5502270   5.5516970
          775         776         777         778         779         780
    1   5.5585854   5.5681819   5.5792758   5.6012082   5.6706034   5.6782988
          781         782         783         784         785         786
    1   5.7215060   5.7247428   5.7606859   5.7796752   5.7985826   5.8111858
          787         788         789         790         791         792
    1   5.8469776   5.8503017   5.8820367   5.9026274   5.9581205   5.9641677
          793         794         795         796         797         798
    1   6.0042906   6.0228641   6.0382778   6.0753860   6.1143164   6.1444642
          799         800         801         802         803         804
    1   6.1634502   6.1897722   6.2235999   6.2738660   6.3984957   6.4082908
          805         806         807         808         809         810
    1   6.4550901   6.4597459   6.4664862   6.4749241   6.4803329   6.4834185
          811         812         813         814         815         816
    1   6.4915481   6.5221817   6.5252165   6.5737546   6.6029345   6.6575257
          817         818         819         820         821         822
    1   6.6841357   6.6974182   6.7025898   6.7734848   6.7853194   6.7875054
          823         824         825         826         827         828
    1   6.7901789   6.7974138   6.8914953   6.9056914   6.9220138   6.9256690
          829         830         831         832         833         834
    1   6.9281081   6.9340049   6.9431511   6.9485269   6.9952263   7.0339254
          835         836         837         838         839         840
    1   7.0521370   7.1035802   7.1311415   7.1511667   7.2400756   7.2763410
          841         842         843         844         845         846
    1   7.2845754   7.2847572   7.3712067   7.4072343   7.4148023   7.5140050
          847         848         849         850         851         852
    1   7.5557491   7.5736827   7.5843812  22.4509287  22.4735077  22.5035827
          853         854         855         856         857         858
    1  22.6186083  22.8183039  22.8640615  22.9088846  22.9346700  22.9877734
          859         860         861         862         863         864
    1  23.0412056  23.0845518  23.1255797  23.1437829  23.2267233  23.3953612
          865         866         867         868         869         870
    1  23.6319272  23.6988991  44.0982520  44.1144591  44.1463189  44.2267228
          871         872         873
    1  44.4041093  44.4408983  44.7345660
 SCF time:   CPU 6947.58s  wall 603.00s 
 DFT Correlation          Energy =  -7.05280665638696
 DFT Exchange             Energy = -108.11907199323018
 HF Exchange              Energy = -42.17780215544761
 One-Electron             Energy = -5567.67867526599912
 SCRF wf-dependent energy Energy =   0.96205539006905
 Total Coulomb            Energy = 2552.90494472011369
 Nuclear repulsion Energy = 1988.44098804859391

************** Final PCM Free Energy Summary **************
 G_electrostatic  =      -0.05208492 hartree =     -32.68378329 kcal/mol
 G_cavitation     =       0.00000000 hartree =       0.00000000 kcal/mol
 G_dispersion     =       0.00000000 hartree =       0.00000000 kcal/mol
 G_repulsion      =       0.00000000 hartree =       0.00000000 kcal/mol
 --------------------------------------------------
 Non-electrostatic Free Energy =       0.00000000 hartree =       0.00000000 kcal/mol
 Total                         =      -0.05208492 hartree =     -32.68378329 kcal/mol
 --------------------------------------------------
 SCF Energy (H0 + V/2)                       =   -1182.72036791 
 Solute Internal Energy (H0)                 =   -1182.66828299 
 Total Free Energy (H0 + V/2 + non-elec)     =   -1182.72036791 hartree
                                             = -742168.23603230 kcal/mol
***********************************************************

 SCF   energy = -1182.72036791
 Total energy = -1182.72036791
 MAX_CIS_SUBSPACE fits in available memory
 Direct TDDFT/TDA calculation will be performed
 Exchange:     0.1900 Hartree-Fock + 0.3500 B88 + 0.4600 muB88 + LR-HF
 Correlation:  0.1900 VWN5 + 0.8100 LYP
 Using SG-1 standard quadrature grid
 Triplet excitation energies requested
 Singlet excitation energies requested
 Adding PCM contribution to the XC response (LR-PCM)
 Optical dielectric constant (eps_inf) =  1.78
 CIS energy converged when residual is below 10e- 6
 ---------------------------------------------------
 Iter    Rts Conv    Rts Left    Ttl Dev     Max Dev
 ---------------------------------------------------
   1         0           7      0.000819    0.000134
   2         0           7      0.000268    0.000052
   3         0           7      0.000101    0.000030
   4         0           7      0.000262    0.000217
   5         3           4      0.000102    0.000080
   6         3           4      0.000039    0.000030
   7         5           2      0.000015    0.000011
   8         6           1      0.000007    0.000005
   9         6           1      0.000004    0.000002
  10         7           0      0.000003    0.000001    Roots Converged
 ---------------------------------------------------
 Triplets done: starting singlet calculation
 ---------------------------------------------------
 Iter    Rts Conv    Rts Left    Ttl Dev     Max Dev
 ---------------------------------------------------
  11         0           7      0.001938    0.000439
  12         0           7      0.000480    0.000123
  13         0           7      0.000295    0.000107
  14         0           7      0.000171    0.000070
  15         0           7      0.000092    0.000047
  16         2           5      0.000044    0.000019
  17         4           3      0.000019    0.000009
  18         4           3      0.000010    0.000004
  19         5           2      0.000006    0.000002
  20         6           1      0.000004    0.000001
  21         7           0      0.000003    0.000001    Roots Converged
 ---------------------------------------------------
 
 ---------------------------------------------------
         TDDFT/TDA Excitation Energies              
 ---------------------------------------------------

 Excited state   1: excitation energy (eV) =       1.0896
 Total energy for state   1:                 -1182.68032696 au
    Multiplicity: Triplet
    Trans. Mom.:  0.0000 X   0.0000 Y   0.0000 Z
    Strength   :     0.0000000000
    D(   71) --> V(    1) amplitude = -0.0783
    D(   81) --> V(    1) amplitude = -0.0813
    D(   82) --> V(    1) amplitude = -0.1122
    D(   85) --> V(    1) amplitude = -0.1322
    D(   86) --> V(    1) amplitude =  0.9605
    D(   86) --> V(   11) amplitude =  0.0760

 Excited state   2: excitation energy (eV) =       2.5411
 Total energy for state   2:                 -1182.62698468 au
    Multiplicity: Singlet
    Trans. Mom.: -2.7993 X  -2.3208 Y   0.4009 Z
    Strength   :     0.8331670230
    D(   85) --> V(    1) amplitude = -0.0817
    D(   86) --> V(    1) amplitude =  0.9763

 Excited state   3: excitation energy (eV) =       2.7889
 Total energy for state   3:                 -1182.61787926 au
    Multiplicity: Triplet
    Trans. Mom.:  0.0000 X   0.0000 Y   0.0000 Z
    Strength   :     0.0000000000
    D(   71) --> V(    1) amplitude =  0.0782
    D(   80) --> V(    1) amplitude =  0.1318
    D(   82) --> V(    5) amplitude = -0.1200
    D(   84) --> V(    1) amplitude = -0.0789
    D(   85) --> V(    1) amplitude =  0.8801
    D(   85) --> V(   11) amplitude = -0.1062
    D(   86) --> V(    1) amplitude =  0.1337
    D(   86) --> V(    2) amplitude =  0.2585
    D(   86) --> V(    5) amplitude = -0.1714
    D(   86) --> V(   11) amplitude = -0.1160

 Excited state   4: excitation energy (eV) =       3.1150
 Total energy for state   4:                 -1182.60589536 au
    Multiplicity: Triplet
    Trans. Mom.:  0.0000 X   0.0000 Y   0.0000 Z
    Strength   :     0.0000000000
    D(   83) --> V(    1) amplitude =  0.8872
    D(   83) --> V(   11) amplitude =  0.1183
    D(   84) --> V(    1) amplitude = -0.4055

 Excited state   5: excitation energy (eV) =       3.1474
 Total energy for state   5:                 -1182.60470384 au
    Multiplicity: Triplet
    Trans. Mom.:  0.0000 X   0.0000 Y   0.0000 Z
    Strength   :     0.0000000000
    D(   83) --> V(    1) amplitude =  0.4205
    D(   84) --> V(    1) amplitude =  0.8464
    D(   84) --> V(    2) amplitude =  0.1512
    D(   84) --> V(    5) amplitude = -0.1613
    D(   84) --> V(   11) amplitude = -0.1303
    D(   85) --> V(    1) amplitude =  0.0895

 Excited state   6: excitation energy (eV) =       3.2681
 Total energy for state   6:                 -1182.60026926 au
    Multiplicity: Singlet
    Trans. Mom.: -0.0173 X   0.0112 Y   0.0008 Z
    Strength   :     0.0000339464
    D(   83) --> V(    1) amplitude =  0.9849
    D(   83) --> V(   11) amplitude =  0.1158

[...]
      XZZZ     736.3690   YZZZ    -961.4011   ZZZZ   -1463.2791
    5th-Order Moments (Debye-Ang^4)
       500    5194.3846    410  -13020.5647    320   -5305.7189
       230  -15181.1508    140   -5735.6175    050  -73663.4377
       401    -869.0997    311    2136.0382    221   -2005.5386
       131    3328.8217    041   -3996.2269    302    1695.6005
       212   -2773.4137    122   -1218.7525    032  -11471.9725
       203   -1567.8088    113    1554.0978    023   -4954.9409
       104    1347.5597    014   -4502.8069    005   -2449.9040
 -----------------------------------------------------------------
 -----------------------------------------------------------------
                 RPA Excited-State Multipoles, State    4   
                  LMN = < X^L Y^M Z^N >
 -----------------------------------------------------------------
    Charge (ESU x 10^10)
                 0.0000
    Dipole Moment (Debye)
         X       3.9851      Y      -3.4416      Z      -4.2899
       Tot       6.7918
    Quadrupole Moments (Debye-Ang)
        XX    -122.2384     XY      46.6509     YY    -106.2013
        XZ       8.7144     YZ      -6.2573     ZZ    -146.5403
    Octopole Moments (Debye-Ang^2)
       XXX      30.0043    XXY    -542.6115    XYY     146.3022
       YYY    -742.7518    XXZ     -65.0930    XYZ      89.7644
       YYZ       1.5561    XZZ     116.3267    YZZ    -369.0678
       ZZZ    -206.1472
    Hexadecapole Moments (Debye-Ang^3)
      XXXX   -5066.1974   XXXY    -923.2361   XXYY   -3020.9746
      XYYY    -492.2383   YYYY   -8114.8942   XXXZ     544.5629
      XXYZ    -398.5356   XYYZ     674.4950   YYYZ    -112.7734
      XXZZ   -1238.8024   XYZZ    -298.4516   YYZZ   -2129.8831
      XZZZ     734.1262   YZZZ    -944.9898   ZZZZ   -1452.8770
    5th-Order Moments (Debye-Ang^4)
       500    5635.4336    410  -13256.4618    320   -5816.9197
       230  -15930.3864    140   -6768.1556    050  -71154.3727
       401   -1023.8293    311    2084.7813    221   -1956.7235
       131    3448.0551    041   -2769.7575    302    1761.8680
       212   -2724.8085    122   -1193.5186    032  -11127.3248
       203   -1590.0475    113    1535.0232    023   -4851.3983
       104    1367.5658    014   -4440.0831    005   -2445.3452
 -----------------------------------------------------------------
 -----------------------------------------------------------------
                 RPA Excited-State Multipoles, State    5   
                  LMN = < X^L Y^M Z^N >
 -----------------------------------------------------------------
    Charge (ESU x 10^10)
                 0.0000
    Dipole Moment (Debye)
         X      -5.3383      Y      -2.2891      Z       1.7150
       Tot       6.0563
    Quadrupole Moments (Debye-Ang)
        XX    -120.8548     XY       7.3278     YY    -104.6716
        XZ      -3.0388     YZ      17.0737     ZZ    -136.1259
    Octopole Moments (Debye-Ang^2)
       XXX     -14.6066    XXY    -518.7805    XYY     -16.9724
       YYY    -769.7584    XXZ     -30.3464    XYZ      33.3316
       YYZ      88.0844    XZZ      78.8817    YZZ    -323.4430
       ZZZ    -172.8127
    Hexadecapole Moments (Debye-Ang^3)
      XXXX   -5102.9898   XXXY   -1114.2062   XXYY   -2898.9537
      XYYY   -1211.6495   YYYY   -8500.6231   XXXZ     502.5469
      XXYZ    -257.6711   XYYZ     411.8927   YYYZ     185.6446
      XXZZ   -1185.6227   XYZZ    -460.1840   YYZZ   -1943.6114
      XZZZ     661.8843   YZZZ    -806.6845   ZZZZ   -1381.4572
    5th-Order Moments (Debye-Ang^4)
       500    5383.4725    410  -13161.6576    320   -6543.7563
       230  -15374.5858    140  -10111.5252    050  -74715.0178
       401    -788.1611    311    1839.4525    221   -1409.7819
       131    2212.6655    041   -1904.1093    302    1547.2420
       212   -2471.4646    122   -1883.6682    032  -10397.4804
       203   -1396.2760    113    1204.6313    023   -4292.8682
       104    1154.6182    014   -4125.7916    005   -2233.6480
 -----------------------------------------------------------------
 -----------------------------------------------------------------
                 RPA Excited-State Multipoles, State    6   
                  LMN = < X^L Y^M Z^N >
 -----------------------------------------------------------------
    Charge (ESU x 10^10)
                 0.0000
    Dipole Moment (Debye)
         X      -6.4303      Y      -1.9288      Z       2.5475
       Tot       7.1804
    Quadrupole Moments (Debye-Ang)
        XX    -120.7967     XY       2.2191     YY    -103.2703
        XZ      -4.5955     YZ      20.5627     ZZ    -134.5860
    Octopole Moments (Debye-Ang^2)
       XXX     -19.5198    XXY    -515.0457    XYY     -38.5058
       YYY    -766.3390    XXZ     -25.9400    XYZ      25.6130
       YYZ     102.1300    XZZ      74.1288    YZZ    -316.2698
       ZZZ    -168.2497
    Hexadecapole Moments (Debye-Ang^3)
      XXXX   -5111.3994   XXXY   -1141.0762   XXYY   -2880.3964
      XYYY   -1307.6961   YYYY   -8512.9122   XXXZ     497.3184
      XXYZ    -238.0275   XYYZ     375.9349   YYYZ     239.7547
      XXZZ   -1178.7093   XYZZ    -481.8073   YYZZ   -1913.0623
      XZZZ     652.7100   YZZZ    -786.7509   ZZZZ   -1372.1777
    5th-Order Moments (Debye-Ang^4)
       500    5369.2809    410  -13148.9110    320   -6652.4158
       230  -15287.4686    140  -10551.9043    050  -74958.8560
       401    -763.1663    311    1803.9675    221   -1328.4683
       131    2046.5976    041   -1708.4126    302    1522.6475
       212   -2434.8021    122   -1977.1232    032  -10271.0209
       203   -1373.1748    113    1160.5233    023   -4209.3857
       104    1129.8050    014   -4082.4310    005   -2209.4441
 -----------------------------------------------------------------
 -----------------------------------------------------------------
                 RPA Excited-State Multipoles, State    7   
                  LMN = < X^L Y^M Z^N >
 -----------------------------------------------------------------
    Charge (ESU x 10^10)
                 0.0000
    Dipole Moment (Debye)
         X      -3.6075      Y      -9.2171      Z      -2.9954
       Tot      10.3413
    Quadrupole Moments (Debye-Ang)
        XX    -114.6486     XY      35.2760     YY    -132.4116
        XZ       7.1862     YZ      -6.6938     ZZ    -147.1034
    Octopole Moments (Debye-Ang^2)
       XXX     -38.8453    XXY    -550.4328    XYY     113.0601
       YYY    -874.3426    XXZ     -44.4606    XYZ      90.3671
       YYZ     -13.3826    XZZ     102.6470    YZZ    -379.5223
       ZZZ    -201.1550
    Hexadecapole Moments (Debye-Ang^3)
      XXXX   -4875.8432   XXXY    -951.0700   XXYY   -3002.7181
      XYYY    -576.3757   YYYY   -8811.0397   XXXZ     508.7719
      XXYZ    -376.4062   XYYZ     657.1905   YYYZ    -245.2117
      XXZZ   -1225.3427   XYZZ    -325.6697   YYZZ   -2182.6564
      XZZZ     724.3917   YZZZ    -943.5665   ZZZZ   -1451.1026
    5th-Order Moments (Debye-Ang^4)
       500    4427.8680    410  -13245.5884    320   -5788.7212
       230  -15721.4884    140   -7001.6975    050  -75075.7483
       401    -640.0878    311    2136.6699    221   -1912.2691
       131    3299.5515    041   -3668.1721    302    1593.4255
       212   -2761.8816    122   -1292.7992    032  -11401.3803
       203   -1514.3225    113    1531.3300    023   -4881.5265
       104    1310.7703    014   -4464.5992    005   -2410.9884
 -----------------------------------------------------------------
 -----------------------------------------------------------------
                 RPA Excited-State Multipoles, State    8   
                  LMN = < X^L Y^M Z^N >
 -----------------------------------------------------------------
    Charge (ESU x 10^10)
                 0.0000
    Dipole Moment (Debye)
         X      -3.8756      Y      -8.2129      Z      -2.2722
       Tot       9.3613
    Quadrupole Moments (Debye-Ang)
        XX    -115.0911     XY      29.6234     YY    -132.7344
        XZ       4.6857     YZ      -4.4929     ZZ    -145.4877
    Octopole Moments (Debye-Ang^2)
       XXX     -37.4574    XXY    -540.8691    XYY      89.9815
       YYY    -900.8662    XXZ     -38.8141    XYZ      79.7812
       YYZ     -13.4831    XZZ      97.5666    YZZ    -375.1601
       ZZZ    -197.0161
    Hexadecapole Moments (Debye-Ang^3)
      XXXX   -4905.5235   XXXY   -1008.3126   XXYY   -3003.6222
      XYYY    -701.3811   YYYY   -9057.2934   XXXZ     488.4555
      XXYZ    -357.2536   XYYZ     625.1436   YYYZ    -263.9977
      XXZZ   -1214.1509   XYZZ    -343.2817   YYZZ   -2173.9344
      XZZZ     712.8644   YZZZ    -931.0828   ZZZZ   -1440.0887
    5th-Order Moments (Debye-Ang^4)
       500    4586.2313    410  -13068.1536    320   -5891.1431
       230  -15785.1425    140   -7749.3284    050  -77068.4071
       401    -569.4596    311    2058.0001    221   -1903.1427
       131    3112.2755    041   -3927.8903    302    1551.5492
       212   -2731.7383    122   -1360.0028    032  -11409.0967
       203   -1485.7665    113    1490.2077    023   -4855.8341
       104    1280.7738    014   -4433.1840    005   -2380.8608
 -----------------------------------------------------------------
 -----------------------------------------------------------------
                 RPA Excited-State Multipoles, State    9   
                  LMN = < X^L Y^M Z^N >
 -----------------------------------------------------------------
    Charge (ESU x 10^10)
                 0.0000
    Dipole Moment (Debye)
         X      -1.1467      Y     -10.1852      Z      -4.9468
       Tot      11.3808
    Quadrupole Moments (Debye-Ang)
        XX    -108.3965     XY      54.3130     YY    -125.3371
        XZ      10.5394     YZ     -12.7332     ZZ    -150.2159
    Octopole Moments (Debye-Ang^2)
       XXX     -35.8205    XXY    -553.5528    XYY     180.1400
       YYY    -819.2495    XXZ     -53.4007    XYZ     103.0580
       YYZ     -30.5497    XZZ     111.3772    YZZ    -389.5324
       ZZZ    -210.6348
    Hexadecapole Moments (Debye-Ang^3)
      XXXX   -4744.8908   XXXY    -779.5139   XXYY   -2919.3086
      XYYY    -242.9668   YYYY   -8413.7753   XXXZ     520.7266
      XXYZ    -416.5404   XYYZ     693.6022   YYYZ    -298.6634
      XXZZ   -1239.1033   XYZZ    -292.0825   YYZZ   -2207.6909
      XZZZ     744.3918   YZZZ    -970.8212   ZZZZ   -1473.0776
    5th-Order Moments (Debye-Ang^4)
       500    4227.0799    410  -13292.7508    320   -5238.4493
       230  -15221.5618    140   -5337.2231    050  -72495.2388
       401    -687.2307    311    2227.6444    221   -2021.2120
       131    3442.1223    041   -3795.7628    302    1646.1409
       212   -2819.8574    122   -1183.2182    032  -11462.6811
       203   -1568.9448    113    1592.5327    023   -4963.4053
       104    1367.0594    014   -4529.9591    005   -2480.7968
 -----------------------------------------------------------------
 -----------------------------------------------------------------
                 RPA Excited-State Multipoles, State   10   
                  LMN = < X^L Y^M Z^N >
 -----------------------------------------------------------------
    Charge (ESU x 10^10)
                 0.0000
    Dipole Moment (Debye)
         X       7.1785      Y      -2.1087      Z      -5.4368
       Tot       9.2486
    Quadrupole Moments (Debye-Ang)
        XX    -123.7539     XY      55.9676     YY     -98.7438
        XZ      10.7727     YZ      -9.4360     ZZ    -148.0528
    Octopole Moments (Debye-Ang^2)
       XXX      57.1443    XXY    -539.1160    XYY     184.2424
       YYY    -697.7874    XXZ     -75.2614    XYZ      96.5016
       YYZ      -7.3500    XZZ     124.2843    YZZ    -373.0596
       ZZZ    -211.7397
    Hexadecapole Moments (Debye-Ang^3)
      XXXX   -5085.0659   XXXY    -852.3747   XXYY   -3000.6423
      XYYY    -330.5326   YYYY   -7852.4659   XXXZ     559.0341
      XXYZ    -427.5103   XYYZ     701.5231   YYYZ    -134.3961
      XXZZ   -1250.5773   XYZZ    -273.5857   YYZZ   -2142.5295
      XZZZ     745.7132   YZZZ    -962.1674   ZZZZ   -1463.1654
    5th-Order Moments (Debye-Ang^4)
       500    5983.5776    410  -13200.9739    320   -5529.2874
       230  -15785.6607    140   -5991.9877    050  -69557.6913
       401   -1137.6309    311    2115.8838    221   -2053.9862
       131    3570.5663    041   -2778.2787    302    1830.2068
       212   -2752.9449    122   -1096.6747    032  -11158.7029
       203   -1634.9512    113    1573.4948    023   -4909.0476
       104    1407.8164    014   -4471.5248    005   -2480.2202
 -----------------------------------------------------------------
 -----------------------------------------------------------------
                 RPA Excited-State Multipoles, State   11   
                  LMN = < X^L Y^M Z^N >
 -----------------------------------------------------------------
    Charge (ESU x 10^10)
                 0.0000
    Dipole Moment (Debye)
         X      -7.5342      Y     -14.3679      Z      -3.4204
       Tot      16.5801
    Quadrupole Moments (Debye-Ang)
        XX    -107.4048     XY      34.5051     YY    -148.3438
        XZ       7.3889     YZ      -8.2674     ZZ    -147.5137
    Octopole Moments (Debye-Ang^2)
       XXX     -65.3900    XXY    -573.1113    XYY      76.1323
       YYY    -993.6490    XXZ     -52.5968    XYZ      84.8271
       YYZ     -32.2621    XZZ     101.9072    YZZ    -386.8611
       ZZZ    -204.0549
    Hexadecapole Moments (Debye-Ang^3)
      XXXX   -4886.0588   XXXY    -949.9918   XXYY   -3038.3410
      XYYY    -695.0315   YYYY   -9405.3079   XXXZ     558.4079
      XXYZ    -371.3308   XYYZ     657.0390   YYYZ    -326.4449
      XXZZ   -1237.0339   XYZZ    -322.5643   YYZZ   -2209.3942
      XZZZ     732.2466   YZZZ    -952.4516   ZZZZ   -1457.2478
    5th-Order Moments (Debye-Ang^4)
       500    4648.1399    410  -13493.9211    320   -6104.6695
       230  -16253.5644    140   -7996.4078    050  -78864.1791
       401    -944.2880    311    2106.0211    221   -1973.4105
       131    3226.4148    041   -4206.3031    302    1671.7382
       212   -2795.0727    122   -1315.1017    032  -11585.0297
       203   -1566.6102    113    1528.7536    023   -4948.1131
       104    1326.5328    014   -4498.6982    005   -2435.9796
 -----------------------------------------------------------------
 -----------------------------------------------------------------
                 RPA Excited-State Multipoles, State   12   
                  LMN = < X^L Y^M Z^N >
 -----------------------------------------------------------------
    Charge (ESU x 10^10)
                 0.0000
    Dipole Moment (Debye)
         X      -2.5892      Y      -7.7192      Z      -2.7935
       Tot       8.6078
    Quadrupole Moments (Debye-Ang)
        XX    -108.5809     XY      41.7550     YY    -118.7911
        XZ       5.6795     YZ      -4.9330     ZZ    -145.8957
    Octopole Moments (Debye-Ang^2)
       XXX     -43.1441    XXY    -538.7873    XYY     135.9749
       YYY    -790.7227    XXZ     -41.4224    XYZ      87.1573
       YYZ       0.7342    XZZ     101.9453    YZZ    -372.3389
       ZZZ    -199.2137
    Hexadecapole Moments (Debye-Ang^3)
      XXXX   -4754.3379   XXXY    -875.6850   XXYY   -2908.2989
      XYYY    -453.0567   YYYY   -8306.0576   XXXZ     481.9084
      XXYZ    -379.1943   XYYZ     637.2205   YYYZ    -160.0318
      XXZZ   -1214.8817   XYZZ    -327.7685   YYZZ   -2140.3025
      XZZZ     719.3758   YZZZ    -928.8477   ZZZZ   -1444.0694
    5th-Order Moments (Debye-Ang^4)
       500    4137.1949    410  -13167.8674    320   -5525.7024
       230  -15189.7994    140   -6275.6342    050  -72007.3598
       401    -550.9318    311    2134.3555    221   -1883.3321
       131    3217.2782    041   -3164.6849    302    1574.2791
       212   -2740.3411    122   -1318.5377    032  -11174.9470
       203   -1508.2647    113    1509.3054    023   -4792.8247
       104    1308.1473    014   -4419.2043    005   -2399.9690
 -----------------------------------------------------------------
 -----------------------------------------------------------------
                 RPA Excited-State Multipoles, State   13   
                  LMN = < X^L Y^M Z^N >
 -----------------------------------------------------------------
    Charge (ESU x 10^10)
                 0.0000
    Dipole Moment (Debye)
         X      -4.2272      Y      -8.2688      Z      -2.1004
       Tot       9.5212
    Quadrupole Moments (Debye-Ang)
        XX    -117.7309     XY      25.9024     YY    -131.6418
        XZ       4.4835     YZ      -1.4569     ZZ    -144.3086
    Octopole Moments (Debye-Ang^2)
       XXX     -20.4790    XXY    -534.4199    XYY      75.0138
       YYY    -905.6962    XXZ     -41.1231    XYZ      71.6480
       YYZ      -7.8333    XZZ      95.3984    YZZ    -371.5741
       ZZZ    -196.1915
    Hexadecapole Moments (Debye-Ang^3)
      XXXX   -5020.5162   XXXY   -1046.2683   XXYY   -3000.6754
      XYYY    -754.0675   YYYY   -9080.5133   XXXZ     506.0433
      XXYZ    -339.1139   XYYZ     611.6987   YYYZ    -232.4776
      XXZZ   -1215.5302   XYZZ    -352.8052   YYZZ   -2159.5574
      XZZZ     713.1192   YZZZ    -923.0070   ZZZZ   -1440.5596
    5th-Order Moments (Debye-Ang^4)
       500    5163.3227    410  -12989.8002    320   -5942.3909
       230  -15812.7046    140   -8016.8467    050  -77356.3435
       401    -670.8136    311    2017.9551    221   -1886.3585
       131    3030.8191    041   -3849.9579    302    1581.6124
       212   -2717.3861    122   -1398.0019    032  -11368.2179
       203   -1501.4536    113    1470.9855    023   -4838.0035
       104    1286.6283    014   -4432.6809    005   -2403.3820
 -----------------------------------------------------------------
 -----------------------------------------------------------------
                 RPA Excited-State Multipoles, State   14   
                  LMN = < X^L Y^M Z^N >
 -----------------------------------------------------------------
    Charge (ESU x 10^10)
                 0.0000
    Dipole Moment (Debye)
         X      -6.5422      Y     -13.1543      Z      -3.3432
       Tot      15.0669
    Quadrupole Moments (Debye-Ang)
        XX    -106.4833     XY      36.6673     YY    -140.6024
        XZ       6.5806     YZ      -6.6575     ZZ    -146.7231
    Octopole Moments (Debye-Ang^2)
       XXX     -60.2633    XXY    -565.7778    XYY      83.2644
       YYY    -953.1370    XXZ     -51.0150    XYZ      80.8788
       YYZ     -24.1051    XZZ     100.9956    YZZ    -382.3154
       ZZZ    -203.0384
    Hexadecapole Moments (Debye-Ang^3)
      XXXX   -4843.9544   XXXY    -917.9274   XXYY   -2990.2528
      XYYY    -652.1004   YYYY   -9187.9092   XXXZ     538.5235
      XXYZ    -368.9790   XYYZ     640.7200   YYYZ    -285.3219
      XXZZ   -1228.7348   XYZZ    -327.0280   YYZZ   -2188.3181
      XZZZ     727.8477   YZZZ    -945.5060   ZZZZ   -1456.3106
    5th-Order Moments (Debye-Ang^4)
       500    4563.2131    410  -13422.0921    320   -5973.4403
       230  -15989.4676    140   -7695.0842    050  -77610.1198
       401    -870.1469    311    2084.1454    221   -1954.5736
       131    3166.6232    041   -3995.0089    302    1648.8711
       212   -2774.0457    122   -1333.6742    032  -11486.4837
       203   -1555.9899    113    1514.4120    023   -4913.6600
       104    1326.9710    014   -4487.2682    005   -2446.8133
 -----------------------------------------------------------------
 Total job time:  6053.97s(wall), 82769.26s(cpu) 
 Fri Jan 31 02:52:23 2025

        *************************************************************
        *                                                           *
        *  Thank you very much for using Q-Chem.  Have a nice day.  *
        *                                                           *
        *************************************************************


