
Running Job 1 of 1 Malvidin_H_tddft_full.in
qchem Malvidin_H_tddft_full.in_3270746.0 /data/brussel/103/vsc10365/activedata/TDDFTAnthocyanidines/qchem3270746/ 1
/apps/brussel/RL8/skylake/software/Q-Chem/6.2.0/exe/qcprog.exe_s Malvidin_H_tddft_full.in_3270746.0 /data/brussel/103/vsc10365/activedata/TDDFTAnthocyanidines/qchem3270746/
                  Welcome to Q-Chem
     A Quantum Leap Into The Future Of Chemistry


 Q-Chem 6.2, Q-Chem, Inc., Pleasanton, CA (2024)

 License issued to: SRG Prof. Dr. Frank De Proft, Vrije Universiteit Brussel

 E. Epifanovsky,  A. T. B. Gilbert,  Xintian Feng,  Joonho Lee,  Yuezhi Mao,  
 N. Mardirossian,  P. Pokhilko,  A. White,  M. Wormit,  M. P. Coons,  
 A. L. Dempwolff,  Zhengting Gan,  D. Hait,  P. R. Horn,  L. D. Jacobson,  
 I. Kaliman,  J. Kussmann,  A. W. Lange,  Ka Un Lao,  D. S. Levine,  Jie Liu,  
 S. C. McKenzie,  A. F. Morrison,  K. D. Nanda,  F. Plasser,  D. R. Rehn,  
 M. L. Vidal,  Zhi-Qiang You,  Ying Zhu,  Huseyin Aksu,  B. Alam,  
 B. Albrecht,  A. Aldossary,  E. Alguire,  J. H. Andersen,  
 J. E. Arias-Martinez,  V. Athavale,  D. Barton,  K. Begam,  A. Behn,  
 N. Bellonzi,  Y. A. Bernard,  E. J. Berquist,  H. Burton,  A. Carreras,  
 K. Carter-Fenk,  Mathew Chow,  Romit Chakraborty,  Chandrima Chakravarty,  
 Junhan Chen,  A. D. Chien,  K. D. Closser,  V. Cofer-Shabica,  L. Cunha,  
 S. Dasgupta,  Jia Deng,  Joseph Dickinson,  M. de Wergifosse,  
 M. Diedenhofen,  Hainam Do,  Wenjie Dou,  S. Ehlert,  Po-Tung Fang,  
 S. Fatehi,  Qingguo Feng,  Jonathan Fetherolf,  T. Friedhoff,  
 Thomas Froitzheim,  Sarai Folkestad,  B. Ganoe,  J. Gayvert,  Qinghui Ge,  
 G. Gidofalvi,  M. Gimferrer,  M. Goldey,  Montgomery Gray,  J. Gomes,  
 C. Gonzalez-Espinoza,  S. Gulania,  A. Gunina,  J. A. Gyamfi,  
 M. W. D. Hanson-Heine,  P. H. P. Harbach,  A. W. Hauser,  M. F. Herbst,  
 M. Hernandez Vera,  M. Hodecker,  Z. C. Holden,  S. Houck,  Xunkun Huang,  
 Kerwin Hui,  B. C. Huynh,  K. Ikeda,  M. Ivanov,  Nayanthara K. Jayadev,  
 Hyunjun Ji,  Zuxin Jin,  Hanjie Jiang,  Subrata Jana,  B. Kaduk,  
 S. Kaehler,  R. Kang,  K. Khistyaev,  Jaehoon Kim,  Yongbin Kim,  
 P. Klunzinger,  Z. Koczor-Benda,  Joong Hoon Koh,  D. Kosenkov,  
 Saikiran Kotaru,  L. Koulias,  T. Kowalczyk,  C. M. Krauter,  K. Kue,  
 A. Kunitsa,  T. Kus,  A. Landau,  K. V. Lawler,  D. Lefrancois,  S. Lehtola,  
 Rain Li,  Shaozhi Li,  Tao E. Li,  Yi-Pei Li,  Jiashu Liang,  M. Liebenthal,  
 Hung-Hsuan Lin,  You-Sheng Lin,  Fenglai Liu,  Kuan-Yu Liu,  Xiao Liu,  
 M. Loipersberger,  A. Luenser,  C. Malbon,  Aniket Mandal,  Manisha,  
 A. Manjanath,  P. Manohar,  E. Mansoor,  S. F. Manzer,  Shan-Ping Mao,  
 A. V. Marenich,  T. Markovich,  S. Mason,  F. Matz,  S. A. Maurer,  
 Samuel May,  Alexandra McIsaac,  P. F. McLaughlin,  M. F. S. J. Menger,  
 J.-M. Mewes,  S. A. Mewes,  P. Morgante,  Mohammad Mostafanejad,  
 Madhubani Mukherjee,  J. W. Mullinax,  Quyen Nguyen,  Avik Kumar Ojha,  
 K. J. Oosterbaan,  Eno Paenurk,  Xiaoliang Pan,  G. Paran,  V. Parravicini,  
 Alexander C. Paul,  Suranjan K. Paul,  F. Pavosevic,  Zheng Pei,  S. Prager,  
 E. I. Proynov,  E. Ramos,  B. Rana,  A. E. Rask,  A. Rettig,  R. M. Richard,  
 F. Rob,  E. Rossomme,  T. Scheele,  M. Scheurer,  M. Schneider,  
 P. E. Schneider,  Tim K. Schramm,  N. Sergueev,  S. M. Sharada,  
 Hengyuan Shen,  W. Skomorowski,  D. W. Small,  C. J. Stein,  
 Alistair J. Sterling,  Yingli Su,  Yu-Chuan Su,  E. J. Sundstrom,  
 J. Talbot,  Zhen Tao,  J. Thirman,  Hung-Yi Tsai,  T. Tsuchimochi,  
 N. M. Tubman,  C. Utku,  S. P. Veccham,  O. Vydrov,  Rahel Weiss,  
 J. Wenzel,  Jonathan Wong,  J. Witte,  H. Wu,  Yanze Wu,  A. Yamada,  
 Chou-Hsun Yang,  Kun Yao,  S. Yeganeh,  S. R. Yost,  Qi Yu,  A. Zech,  
 F. Zeller,  Chongxiao Zhao,  Igor Ying Zhang,  Xing Zhang,  Yu Zhang,  
 D. Zuev,  A. Aspuru-Guzik,  A. T. Bell,  N. A. Besley,  K. B. Bravaya,  
 B. R. Brooks,  D. Casanova,  Jeng-Da Chai,  Hsing-Ta Chen,  S. Coriani,  
 C. J. Cramer,  A. E. DePrince, III,  R. A. DiStasio Jr.,  A. Dreuw,  
 B. D. Dunietz,  T. R. Furlani,  W. A. Goddard III,  S. Grimme,  
 S. Hammes-Schiffer,  T. Head-Gordon,  W. J. Hehre,  Chao-Ping Hsu,  
 T.-C. Jagau,  Yousung Jung,  A. Klamt,  Jing Kong,  D. S. Lambrecht,  
 Xiangyuan Li,  WanZhen Liang,  N. J. Mayhall,  C. W. McCurdy,  J. B. Neaton,  
 T. Neudecker,  C. Ochsenfeld,  J. A. Parkhill,  R. Peverati,  
 V. A. Rassolov,  Haisheng Ren,  Yihan Shao,  L. V. Slipchenko,  
 R. P. Steele,  J. E. Subotnik,  A. J. W. Thom,  A. Tkatchenko,  
 D. G. Truhlar,  T. Van Voorhis,  Fan Wang,  T. A. Wesolowski,  K. B. Whaley,  
 H. L. Woodcock III,  P. M. Zimmerman,  S. Faraji,  P. M. W. Gill,  
 M. Head-Gordon,  J. M. Herbert,  A. I. Krylov

 Contributors to earlier versions of Q-Chem not listed above: 
 R. D. Adamson,  B. Austin,  R. Baer,  J. Baker,  G. J. O. Beran,  
 K. Brandhorst,  S. T. Brown,  E. F. C. Byrd,  Arup K. Chakraborty,  
 G. K. L. Chan,  Chun-Min Chang,  Yunqing Chen,  C.-L. Cheng,  
 Siu Hung Chien,  D. M. Chipman,  D. L. Crittenden,  H. Dachsel,  
 R. J. Doerksen,  A. D. Dutoi,  R. G. Edgar,  J. Fosso-Tande,  
 L. Fusti-Molnar,  D. Ghosh,  A. Ghysels,  A. Golubeva-Zadorozhnaya,  
 J. Gonthier,  M. S. Gordon,  S. R. Gwaltney,  G. Hawkins,  J. E. Herr,  
 A. Heyden,  S. Hirata,  E. G. Hohenstein,  G. Kedziora,  F. J. Keil,  
 C. Kelley,  Jihan Kim,  R. A. King,  R. Z. Khaliullin,  P. P. Korambath,  
 W. Kurlancheek,  A. Laurent,  A. M. Lee,  M. S. Lee,  S. V. Levchenko,  
 Ching Yeh Lin,  D. Liotard,  E. Livshits,  R. C. Lochan,  I. Lotan,  
 L. A. Martinez-Martinez,  P. E. Maslen,  N. Nair,  D. P. O'Neill,  
 D. Neuhauser,  E. Neuscamman,  C. M. Oana,  R. Olivares-Amaya,  R. Olson,  
 T. M. Perrine,  B. Peters,  P. A. Pieniazek,  A. Prociuk,  Y. M. Rhee,  
 J. Ritchie,  M. A. Rohrdanz,  E. Rosta,  N. J. Russ,  H. F. Schaefer III,  
 M. W. Schmidt,  N. E. Schultz,  S. Sharma,  N. Shenvi,  C. D. Sherrill,  
 A. C. Simmonett,  A. Sodt,  T. Stein,  D. Stuck,  K. S. Thanthiriwatte,  
 V. Vanovschi,  L. Vogt,  Tao Wang,  A. Warshel,  M. A. Watson,  
 C. F. Williams,  Q. Wu,  X. Xu,  Jun Yang,  W. Zhang,  Yan Zhao

   Please cite Q-Chem as follows:
  "Software for the frontiers of quantum chemistry:
   An overview of developments in the Q-Chem 5 package"
   J. Chem. Phys. 155, 084801 (2021)
   https://doi.org/10.1063/5.0055522 (open access)

 Q-Chem 6.2.0 for Intel X86 EM64T Linux

 Parts of Q-Chem use Armadillo 9.900.5 (Nocturnal Misbehaviour).
 http://arma.sourceforge.net/

 Q-Chem begins on Fri Jan 31 01:05:17 2025  

 Host: 
0

     Scratch files written to /data/brussel/103/vsc10365/activedata/TDDFTAnthocyanidines/qchem3270746//
 May224 |scratch|qcdevops|jenkins|workspace|build_RNUM -1
 Processing $rem in /apps/brussel/RL8/skylake/software/Q-Chem/6.2.0/config/preferences:
 Processing $rem in /user/brussel/103/vsc10365/.qchemrc:
 Symmetry turned off for PCM/SM12/SMD calculation

 Checking the input file for inconsistencies... 	...done.

--------------------------------------------------------------
User input:
--------------------------------------------------------------
$comment
TDDFT calculation of malvidin H structure
nprocs=16
mem=64gb
$end

$molecule
1 1
C   -2.7705976   -1.4750130   -0.4708814
C   -3.9032473   -1.2795039    0.3416363
C   -4.0284696   -0.1289849    1.0827225
C   -3.0135430    0.8683941    1.0300200
C   -1.9027972    0.6165246    0.1988015
C   -1.7550480   -0.5317103   -0.5536352
C   -3.0345730    2.0695742    1.7401619
C   -2.0073246    2.9890146    1.6355996
C   -0.9132105    2.7141170    0.7915986
O   -0.9258290    1.5480415    0.1272194
C    0.2627856    3.5092794    0.5223853
C    0.4111565    4.8169107    1.0246996
C    1.5523057    5.5382078    0.7254358
C    2.5643624    4.9808733   -0.0678456
C    2.4211470    3.6782202   -0.5712244
C    1.2815503    2.9533119   -0.2797754
O   -2.6322201   -2.6034114   -1.2058995
H   -4.6747811   -2.0397445    0.3803500
O   -5.0874545    0.1262131    1.8854708
H   -0.8882091   -0.6873229   -1.1789064
H   -3.8674576    2.2955123    2.3946218
O   -2.0231279    4.1502820    2.3379461
H   -0.3577297    5.2609183    1.6287038
O    1.8161141    6.8093276    1.1421430
O    3.6862054    5.6770159   -0.3619678
H    1.1725556    1.9537763   -0.6652871
H   -3.3962052   -3.1861648   -1.0815567
H   -5.7155147   -0.6110589    1.8610920
H   -2.8238124    4.1954880    2.8816343
H    3.6309133    6.5505221    0.0589613
C    0.8360229    7.4871131    1.9368109
H    1.2540379    8.4683609    2.1453252
H    0.6613343    6.9551577    2.8733993
H   -0.1000149    7.5950755    1.3861335
O    3.4578760    3.2310969   -1.3309070
C    3.3739804    1.9104504   -1.8784144
H    4.2928548    1.7672972   -2.4409924
H    2.5161643    1.8193873   -2.5475119
H    3.3086905    1.1629004   -1.0856272
$end

$rem
BASIS  =  def2-ma-TZVP
MEM_STATIC  =  2000
MEM_TOTAL  =  64000
METHOD  =  CAM-B3LYP
SOLVENT_METHOD = pcm
SYMMETRY_IGNORE  =  1
CIS_N_ROOTS = 7
CIS_SINGLETS = true
CIS_TRIPLETS = true
CISTR_PRINT = true
RPA = true
PRINT_ORBITALS = true
SCF_PRINT = 1
SCF_FINAL_PRINT = 2
PRINT_GENERAL_BASIS = true
CISTR_PRINT = true
PRINT_RADII_GYRE = true
MULTIPOLE_ORDER = 5
CIS_AMPL_PRINT = 5
CIS_AMPL_ANAL = true
STATE_ANALYSIS = true
$end

$pcm
Theory   CPCM
Method   SWIG
Solver   Inversion
Radii    Bondi
$end

$solvent
Dielectric         78.39
OpticalDielectric  1.777849
$end


--------------------------------------------------------------
 ----------------------------------------------------------------
             Standard Nuclear Orientation (Angstroms)
    I     Atom           X                Y                Z
 ----------------------------------------------------------------
    1      C      -2.7705976000    -1.4750130000    -0.4708814000
    2      C      -3.9032473000    -1.2795039000     0.3416363000
    3      C      -4.0284696000    -0.1289849000     1.0827225000
    4      C      -3.0135430000     0.8683941000     1.0300200000
    5      C      -1.9027972000     0.6165246000     0.1988015000
    6      C      -1.7550480000    -0.5317103000    -0.5536352000
    7      C      -3.0345730000     2.0695742000     1.7401619000
    8      C      -2.0073246000     2.9890146000     1.6355996000
    9      C      -0.9132105000     2.7141170000     0.7915986000
   10      O      -0.9258290000     1.5480415000     0.1272194000
   11      C       0.2627856000     3.5092794000     0.5223853000
   12      C       0.4111565000     4.8169107000     1.0246996000
   13      C       1.5523057000     5.5382078000     0.7254358000
   14      C       2.5643624000     4.9808733000    -0.0678456000
   15      C       2.4211470000     3.6782202000    -0.5712244000
   16      C       1.2815503000     2.9533119000    -0.2797754000
   17      O      -2.6322201000    -2.6034114000    -1.2058995000
   18      H      -4.6747811000    -2.0397445000     0.3803500000
   19      O      -5.0874545000     0.1262131000     1.8854708000
   20      H      -0.8882091000    -0.6873229000    -1.1789064000
   21      H      -3.8674576000     2.2955123000     2.3946218000
   22      O      -2.0231279000     4.1502820000     2.3379461000
   23      H      -0.3577297000     5.2609183000     1.6287038000
   24      O       1.8161141000     6.8093276000     1.1421430000
   25      O       3.6862054000     5.6770159000    -0.3619678000
   26      H       1.1725556000     1.9537763000    -0.6652871000
   27      H      -3.3962052000    -3.1861648000    -1.0815567000
   28      H      -5.7155147000    -0.6110589000     1.8610920000
   29      H      -2.8238124000     4.1954880000     2.8816343000
   30      H       3.6309133000     6.5505221000     0.0589613000
   31      C       0.8360229000     7.4871131000     1.9368109000
   32      H       1.2540379000     8.4683609000     2.1453252000
   33      H       0.6613343000     6.9551577000     2.8733993000
   34      H      -0.1000149000     7.5950755000     1.3861335000
   35      O       3.4578760000     3.2310969000    -1.3309070000
   36      C       3.3739804000     1.9104504000    -1.8784144000
   37      H       4.2928548000     1.7672972000    -2.4409924000
   38      H       2.5161643000     1.8193873000    -2.5475119000
   39      H       3.3086905000     1.1629004000    -1.0856272000
 ----------------------------------------------------------------
 Nuclear Repulsion Energy =        2012.80750346 hartrees
 There are       86 alpha and       86 beta electrons
 Requested basis set is def2-ma-TZVP
 Basis set in general basis input format:
-----------------------------------------------------------------------
$basis
C    0
S    6    1.000000
   1.35753497E+04    2.22458144E-04 
   2.03523337E+03    1.72327383E-03 
   4.63225624E+02    8.92557153E-03 
   1.31200196E+02    3.57279845E-02 
   4.28530159E+01    1.10762599E-01 
   1.55841858E+01    2.42956276E-01 
S    2    1.000000
   6.20671385E+00    4.14402634E-01 
   2.57648965E+00    2.37449687E-01 
S    1    1.000000
   5.76963394E-01    1.00000000E+00 
S    1    1.000000
   2.29728314E-01    1.00000000E+00 
S    1    1.000000
   9.51644400E-02    1.00000000E+00 
S    1    1.000000
   4.84754014E-02    1.00000000E+00 
P    4    1.000000
   3.46972322E+01    5.33336578E-03 
   7.95826228E+00    3.58641091E-02 
   2.37808269E+00    1.42158733E-01 
   8.14332082E-01    3.42704718E-01 
P    1    1.000000
   2.88875473E-01    4.64458224E-01 
P    1    1.000000
   1.00568237E-01    2.49557899E-01 
D    1    1.000000
   1.09700000E+00    1.00000000E+00 
D    1    1.000000
   3.18000000E-01    1.00000000E+00 
F    1    1.000000
   7.61000000E-01    1.00000000E+00 
****
C    0
S    6    1.000000
   1.35753497E+04    2.22458144E-04 
   2.03523337E+03    1.72327383E-03 
   4.63225624E+02    8.92557153E-03 
   1.31200196E+02    3.57279845E-02 
   4.28530159E+01    1.10762599E-01 
   1.55841858E+01    2.42956276E-01 
S    2    1.000000
   6.20671385E+00    4.14402634E-01 
   2.57648965E+00    2.37449687E-01 
S    1    1.000000
   5.76963394E-01    1.00000000E+00 
S    1    1.000000
   2.29728314E-01    1.00000000E+00 
S    1    1.000000
   9.51644400E-02    1.00000000E+00 
S    1    1.000000
   4.84754014E-02    1.00000000E+00 
P    4    1.000000
   3.46972322E+01    5.33336578E-03 
   7.95826228E+00    3.58641091E-02 
   2.37808269E+00    1.42158733E-01 
   8.14332082E-01    3.42704718E-01 
P    1    1.000000
   2.88875473E-01    4.64458224E-01 
P    1    1.000000
   1.00568237E-01    2.49557899E-01 
D    1    1.000000
   1.09700000E+00    1.00000000E+00 
D    1    1.000000
   3.18000000E-01    1.00000000E+00 
F    1    1.000000
   7.61000000E-01    1.00000000E+00 
****
C    0
S    6    1.000000
   1.35753497E+04    2.22458144E-04 
   2.03523337E+03    1.72327383E-03 
   4.63225624E+02    8.92557153E-03 
   1.31200196E+02    3.57279845E-02 
   4.28530159E+01    1.10762599E-01 
   1.55841858E+01    2.42956276E-01 
S    2    1.000000
   6.20671385E+00    4.14402634E-01 
   2.57648965E+00    2.37449687E-01 
S    1    1.000000
   5.76963394E-01    1.00000000E+00 
S    1    1.000000
   2.29728314E-01    1.00000000E+00 
S    1    1.000000
   9.51644400E-02    1.00000000E+00 
S    1    1.000000
   4.84754014E-02    1.00000000E+00 
P    4    1.000000
   3.46972322E+01    5.33336578E-03 
   7.95826228E+00    3.58641091E-02 
   2.37808269E+00    1.42158733E-01 
   8.14332082E-01    3.42704718E-01 
P    1    1.000000
   2.88875473E-01    4.64458224E-01 
P    1    1.000000
   1.00568237E-01    2.49557899E-01 
D    1    1.000000
   1.09700000E+00    1.00000000E+00 
D    1    1.000000
   3.18000000E-01    1.00000000E+00 
F    1    1.000000
   7.61000000E-01    1.00000000E+00 
****
C    0
S    6    1.000000
   1.35753497E+04    2.22458144E-04 
   2.03523337E+03    1.72327383E-03 
   4.63225624E+02    8.92557153E-03 
   1.31200196E+02    3.57279845E-02 
   4.28530159E+01    1.10762599E-01 
   1.55841858E+01    2.42956276E-01 
S    2    1.000000
   6.20671385E+00    4.14402634E-01 
   2.57648965E+00    2.37449687E-01 
S    1    1.000000
   5.76963394E-01    1.00000000E+00 
S    1    1.000000
   2.29728314E-01    1.00000000E+00 
S    1    1.000000
   9.51644400E-02    1.00000000E+00 
S    1    1.000000
   4.84754014E-02    1.00000000E+00 
P    4    1.000000
   3.46972322E+01    5.33336578E-03 
   7.95826228E+00    3.58641091E-02 
   2.37808269E+00    1.42158733E-01 
   8.14332082E-01    3.42704718E-01 
P    1    1.000000
   2.88875473E-01    4.64458224E-01 
P    1    1.000000
   1.00568237E-01    2.49557899E-01 
D    1    1.000000
   1.09700000E+00    1.00000000E+00 
D    1    1.000000
   3.18000000E-01    1.00000000E+00 
F    1    1.000000
   7.61000000E-01    1.00000000E+00 
****
C    0
S    6    1.000000
   1.35753497E+04    2.22458144E-04 
   2.03523337E+03    1.72327383E-03 
   4.63225624E+02    8.92557153E-03 
   1.31200196E+02    3.57279845E-02 
   4.28530159E+01    1.10762599E-01 
   1.55841858E+01    2.42956276E-01 
S    2    1.000000
   6.20671385E+00    4.14402634E-01 
   2.57648965E+00    2.37449687E-01 
S    1    1.000000
   5.76963394E-01    1.00000000E+00 
S    1    1.000000
   2.29728314E-01    1.00000000E+00 
S    1    1.000000
   9.51644400E-02    1.00000000E+00 
S    1    1.000000
   4.84754014E-02    1.00000000E+00 
P    4    1.000000
   3.46972322E+01    5.33336578E-03 
   7.95826228E+00    3.58641091E-02 
   2.37808269E+00    1.42158733E-01 
   8.14332082E-01    3.42704718E-01 
P    1    1.000000
   2.88875473E-01    4.64458224E-01 
P    1    1.000000
   1.00568237E-01    2.49557899E-01 
D    1    1.000000
   1.09700000E+00    1.00000000E+00 
D    1    1.000000
   3.18000000E-01    1.00000000E+00 
F    1    1.000000
   7.61000000E-01    1.00000000E+00 
****
C    0
S    6    1.000000
   1.35753497E+04    2.22458144E-04 
   2.03523337E+03    1.72327383E-03 
   4.63225624E+02    8.92557153E-03 
   1.31200196E+02    3.57279845E-02 
   4.28530159E+01    1.10762599E-01 
   1.55841858E+01    2.42956276E-01 
S    2    1.000000
   6.20671385E+00    4.14402634E-01 
   2.57648965E+00    2.37449687E-01 
S    1    1.000000
   5.76963394E-01    1.00000000E+00 
S    1    1.000000
   2.29728314E-01    1.00000000E+00 
S    1    1.000000
   9.51644400E-02    1.00000000E+00 
S    1    1.000000
   4.84754014E-02    1.00000000E+00 
P    4    1.000000
   3.46972322E+01    5.33336578E-03 
   7.95826228E+00    3.58641091E-02 
   2.37808269E+00    1.42158733E-01 
   8.14332082E-01    3.42704718E-01 
P    1    1.000000
   2.88875473E-01    4.64458224E-01 
P    1    1.000000
   1.00568237E-01    2.49557899E-01 
D    1    1.000000
   1.09700000E+00    1.00000000E+00 
D    1    1.000000
   3.18000000E-01    1.00000000E+00 
F    1    1.000000
   7.61000000E-01    1.00000000E+00 
****
C    0
S    6    1.000000
   1.35753497E+04    2.22458144E-04 
   2.03523337E+03    1.72327383E-03 
   4.63225624E+02    8.92557153E-03 
   1.31200196E+02    3.57279845E-02 
   4.28530159E+01    1.10762599E-01 
   1.55841858E+01    2.42956276E-01 
S    2    1.000000
   6.20671385E+00    4.14402634E-01 
   2.57648965E+00    2.37449687E-01 
S    1    1.000000
   5.76963394E-01    1.00000000E+00 
S    1    1.000000
   2.29728314E-01    1.00000000E+00 
S    1    1.000000
   9.51644400E-02    1.00000000E+00 
S    1    1.000000
   4.84754014E-02    1.00000000E+00 
P    4    1.000000
   3.46972322E+01    5.33336578E-03 
   7.95826228E+00    3.58641091E-02 
   2.37808269E+00    1.42158733E-01 
   8.14332082E-01    3.42704718E-01 
P    1    1.000000
   2.88875473E-01    4.64458224E-01 
P    1    1.000000
   1.00568237E-01    2.49557899E-01 
D    1    1.000000
   1.09700000E+00    1.00000000E+00 
D    1    1.000000
   3.18000000E-01    1.00000000E+00 
F    1    1.000000
   7.61000000E-01    1.00000000E+00 
****
C    0
S    6    1.000000
   1.35753497E+04    2.22458144E-04 
   2.03523337E+03    1.72327383E-03 
   4.63225624E+02    8.92557153E-03 
   1.31200196E+02    3.57279845E-02 
   4.28530159E+01    1.10762599E-01 
   1.55841858E+01    2.42956276E-01 
S    2    1.000000
   6.20671385E+00    4.14402634E-01 
   2.57648965E+00    2.37449687E-01 
S    1    1.000000
   5.76963394E-01    1.00000000E+00 
S    1    1.000000
   2.29728314E-01    1.00000000E+00 
S    1    1.000000
   9.51644400E-02    1.00000000E+00 
S    1    1.000000
   4.84754014E-02    1.00000000E+00 
P    4    1.000000
   3.46972322E+01    5.33336578E-03 
   7.95826228E+00    3.58641091E-02 
   2.37808269E+00    1.42158733E-01 
   8.14332082E-01    3.42704718E-01 
P    1    1.000000
   2.88875473E-01    4.64458224E-01 
P    1    1.000000
   1.00568237E-01    2.49557899E-01 
D    1    1.000000
   1.09700000E+00    1.00000000E+00 
D    1    1.000000
   3.18000000E-01    1.00000000E+00 
F    1    1.000000
   7.61000000E-01    1.00000000E+00 
****
C    0
S    6    1.000000
   1.35753497E+04    2.22458144E-04 
   2.03523337E+03    1.72327383E-03 
   4.63225624E+02    8.92557153E-03 
   1.31200196E+02    3.57279845E-02 
   4.28530159E+01    1.10762599E-01 
   1.55841858E+01    2.42956276E-01 
S    2    1.000000
   6.20671385E+00    4.14402634E-01 
   2.57648965E+00    2.37449687E-01 
S    1    1.000000
   5.76963394E-01    1.00000000E+00 
S    1    1.000000
   2.29728314E-01    1.00000000E+00 
S    1    1.000000
   9.51644400E-02    1.00000000E+00 
S    1    1.000000
   4.84754014E-02    1.00000000E+00 
P    4    1.000000
   3.46972322E+01    5.33336578E-03 
   7.95826228E+00    3.58641091E-02 
   2.37808269E+00    1.42158733E-01 
   8.14332082E-01    3.42704718E-01 
P    1    1.000000
   2.88875473E-01    4.64458224E-01 
P    1    1.000000
   1.00568237E-01    2.49557899E-01 
D    1    1.000000
   1.09700000E+00    1.00000000E+00 
D    1    1.000000
   3.18000000E-01    1.00000000E+00 
F    1    1.000000
   7.61000000E-01    1.00000000E+00 
****
O    0
S    6    1.000000
   2.70323826E+04    2.17263025E-04 
   4.05238714E+03    1.68386622E-03 
   9.22327227E+02    8.73956163E-03 
   2.61240710E+02    3.52399688E-02 
   8.53546414E+01    1.11535191E-01 
   3.10350352E+01    2.55889540E-01 
S    2    1.000000
   1.22608607E+01    3.97687309E-01 
   4.99870760E+00    2.46278494E-01 
S    1    1.000000
   1.17031082E+00    1.00000000E+00 
S    1    1.000000
   4.64747410E-01    1.00000000E+00 
S    1    1.000000
   1.85045364E-01    1.00000000E+00 
S    1    1.000000
   7.02880263E-02    1.00000000E+00 
P    4    1.000000
   6.32749548E+01    6.06851034E-03 
   1.46270494E+01    4.19125758E-02 
   4.45012235E+00    1.61538411E-01 
   1.52757996E+00    3.57069513E-01 
P    1    1.000000
   5.29351179E-01    4.47942075E-01 
P    1    1.000000
   1.74784213E-01    2.44460697E-01 
P    1    1.000000
   5.11127457E-02    1.00000000E+00 
D    1    1.000000
   2.31400000E+00    1.00000000E+00 
D    1    1.000000
   6.45000000E-01    1.00000000E+00 
F    1    1.000000
   1.42800000E+00    1.00000000E+00 
****
C    0
S    6    1.000000
   1.35753497E+04    2.22458144E-04 
   2.03523337E+03    1.72327383E-03 
   4.63225624E+02    8.92557153E-03 
   1.31200196E+02    3.57279845E-02 
   4.28530159E+01    1.10762599E-01 
   1.55841858E+01    2.42956276E-01 
S    2    1.000000
   6.20671385E+00    4.14402634E-01 
   2.57648965E+00    2.37449687E-01 
S    1    1.000000
   5.76963394E-01    1.00000000E+00 
S    1    1.000000
   2.29728314E-01    1.00000000E+00 
S    1    1.000000
   9.51644400E-02    1.00000000E+00 
S    1    1.000000
   4.84754014E-02    1.00000000E+00 
P    4    1.000000
   3.46972322E+01    5.33336578E-03 
   7.95826228E+00    3.58641091E-02 
   2.37808269E+00    1.42158733E-01 
   8.14332082E-01    3.42704718E-01 
P    1    1.000000
   2.88875473E-01    4.64458224E-01 
P    1    1.000000
   1.00568237E-01    2.49557899E-01 
D    1    1.000000
   1.09700000E+00    1.00000000E+00 
D    1    1.000000
   3.18000000E-01    1.00000000E+00 
F    1    1.000000
   7.61000000E-01    1.00000000E+00 
****
C    0
S    6    1.000000
   1.35753497E+04    2.22458144E-04 
   2.03523337E+03    1.72327383E-03 
   4.63225624E+02    8.92557153E-03 
   1.31200196E+02    3.57279845E-02 
   4.28530159E+01    1.10762599E-01 
   1.55841858E+01    2.42956276E-01 
S    2    1.000000
   6.20671385E+00    4.14402634E-01 
   2.57648965E+00    2.37449687E-01 
S    1    1.000000
   5.76963394E-01    1.00000000E+00 
S    1    1.000000
   2.29728314E-01    1.00000000E+00 
S    1    1.000000
   9.51644400E-02    1.00000000E+00 
S    1    1.000000
   4.84754014E-02    1.00000000E+00 
P    4    1.000000
   3.46972322E+01    5.33336578E-03 
   7.95826228E+00    3.58641091E-02 
   2.37808269E+00    1.42158733E-01 
   8.14332082E-01    3.42704718E-01 
P    1    1.000000
   2.88875473E-01    4.64458224E-01 
P    1    1.000000
   1.00568237E-01    2.49557899E-01 
D    1    1.000000
   1.09700000E+00    1.00000000E+00 
D    1    1.000000
   3.18000000E-01    1.00000000E+00 
F    1    1.000000
   7.61000000E-01    1.00000000E+00 
****
C    0
S    6    1.000000
   1.35753497E+04    2.22458144E-04 
   2.03523337E+03    1.72327383E-03 
   4.63225624E+02    8.92557153E-03 
   1.31200196E+02    3.57279845E-02 
   4.28530159E+01    1.10762599E-01 
   1.55841858E+01    2.42956276E-01 
S    2    1.000000
   6.20671385E+00    4.14402634E-01 
   2.57648965E+00    2.37449687E-01 
S    1    1.000000
   5.76963394E-01    1.00000000E+00 
S    1    1.000000
   2.29728314E-01    1.00000000E+00 
S    1    1.000000
   9.51644400E-02    1.00000000E+00 
S    1    1.000000
   4.84754014E-02    1.00000000E+00 
P    4    1.000000
   3.46972322E+01    5.33336578E-03 
   7.95826228E+00    3.58641091E-02 
   2.37808269E+00    1.42158733E-01 
   8.14332082E-01    3.42704718E-01 
P    1    1.000000
   2.88875473E-01    4.64458224E-01 
P    1    1.000000
   1.00568237E-01    2.49557899E-01 
D    1    1.000000
   1.09700000E+00    1.00000000E+00 
D    1    1.000000
   3.18000000E-01    1.00000000E+00 
F    1    1.000000
   7.61000000E-01    1.00000000E+00 
****
C    0
S    6    1.000000
   1.35753497E+04    2.22458144E-04 
   2.03523337E+03    1.72327383E-03 
   4.63225624E+02    8.92557153E-03 
   1.31200196E+02    3.57279845E-02 
   4.28530159E+01    1.10762599E-01 
   1.55841858E+01    2.42956276E-01 
S    2    1.000000
   6.20671385E+00    4.14402634E-01 
   2.57648965E+00    2.37449687E-01 
S    1    1.000000
   5.76963394E-01    1.00000000E+00 
S    1    1.000000
   2.29728314E-01    1.00000000E+00 
S    1    1.000000
   9.51644400E-02    1.00000000E+00 
S    1    1.000000
   4.84754014E-02    1.00000000E+00 
P    4    1.000000
   3.46972322E+01    5.33336578E-03 
   7.95826228E+00    3.58641091E-02 
   2.37808269E+00    1.42158733E-01 
   8.14332082E-01    3.42704718E-01 
P    1    1.000000
   2.88875473E-01    4.64458224E-01 
P    1    1.000000
   1.00568237E-01    2.49557899E-01 
D    1    1.000000
   1.09700000E+00    1.00000000E+00 
D    1    1.000000
   3.18000000E-01    1.00000000E+00 
F    1    1.000000
   7.61000000E-01    1.00000000E+00 
****
C    0
S    6    1.000000
   1.35753497E+04    2.22458144E-04 
   2.03523337E+03    1.72327383E-03 
   4.63225624E+02    8.92557153E-03 
   1.31200196E+02    3.57279845E-02 
   4.28530159E+01    1.10762599E-01 
   1.55841858E+01    2.42956276E-01 
S    2    1.000000
   6.20671385E+00    4.14402634E-01 
   2.57648965E+00    2.37449687E-01 
S    1    1.000000
   5.76963394E-01    1.00000000E+00 
S    1    1.000000
   2.29728314E-01    1.00000000E+00 
S    1    1.000000
   9.51644400E-02    1.00000000E+00 
S    1    1.000000
   4.84754014E-02    1.00000000E+00 
P    4    1.000000
   3.46972322E+01    5.33336578E-03 
   7.95826228E+00    3.58641091E-02 
   2.37808269E+00    1.42158733E-01 
   8.14332082E-01    3.42704718E-01 
P    1    1.000000
   2.88875473E-01    4.64458224E-01 
P    1    1.000000
   1.00568237E-01    2.49557899E-01 
D    1    1.000000
   1.09700000E+00    1.00000000E+00 
D    1    1.000000
   3.18000000E-01    1.00000000E+00 
F    1    1.000000
   7.61000000E-01    1.00000000E+00 
****
C    0
S    6    1.000000
   1.35753497E+04    2.22458144E-04 
   2.03523337E+03    1.72327383E-03 
   4.63225624E+02    8.92557153E-03 
   1.31200196E+02    3.57279845E-02 
   4.28530159E+01    1.10762599E-01 
   1.55841858E+01    2.42956276E-01 
S    2    1.000000
   6.20671385E+00    4.14402634E-01 
   2.57648965E+00    2.37449687E-01 
S    1    1.000000
   5.76963394E-01    1.00000000E+00 
S    1    1.000000
   2.29728314E-01    1.00000000E+00 
S    1    1.000000
   9.51644400E-02    1.00000000E+00 
S    1    1.000000
   4.84754014E-02    1.00000000E+00 
P    4    1.000000
   3.46972322E+01    5.33336578E-03 
   7.95826228E+00    3.58641091E-02 
   2.37808269E+00    1.42158733E-01 
   8.14332082E-01    3.42704718E-01 
P    1    1.000000
   2.88875473E-01    4.64458224E-01 
P    1    1.000000
   1.00568237E-01    2.49557899E-01 
D    1    1.000000
   1.09700000E+00    1.00000000E+00 
D    1    1.000000
   3.18000000E-01    1.00000000E+00 
F    1    1.000000
   7.61000000E-01    1.00000000E+00 
****
O    0
S    6    1.000000
   2.70323826E+04    2.17263025E-04 
   4.05238714E+03    1.68386622E-03 
   9.22327227E+02    8.73956163E-03 
   2.61240710E+02    3.52399688E-02 
   8.53546414E+01    1.11535191E-01 
   3.10350352E+01    2.55889540E-01 
S    2    1.000000
   1.22608607E+01    3.97687309E-01 
   4.99870760E+00    2.46278494E-01 
S    1    1.000000
   1.17031082E+00    1.00000000E+00 
S    1    1.000000
   4.64747410E-01    1.00000000E+00 
S    1    1.000000
   1.85045364E-01    1.00000000E+00 
S    1    1.000000
   7.02880263E-02    1.00000000E+00 
P    4    1.000000
   6.32749548E+01    6.06851034E-03 
   1.46270494E+01    4.19125758E-02 
   4.45012235E+00    1.61538411E-01 
   1.52757996E+00    3.57069513E-01 
P    1    1.000000
   5.29351179E-01    4.47942075E-01 
P    1    1.000000
   1.74784213E-01    2.44460697E-01 
P    1    1.000000
   5.11127457E-02    1.00000000E+00 
D    1    1.000000
   2.31400000E+00    1.00000000E+00 
D    1    1.000000
   6.45000000E-01    1.00000000E+00 
F    1    1.000000
   1.42800000E+00    1.00000000E+00 
****
H    0
S    3    1.000000
   3.40613410E+01    6.02519780E-03 
   5.12357460E+00    4.50210940E-02 
   1.16466260E+00    2.01897260E-01 
S    1    1.000000
   3.27230410E-01    1.00000000E+00 
S    1    1.000000
   1.03072410E-01    1.00000000E+00 
P    1    1.000000
   8.00000000E-01    1.00000000E+00 
****
O    0
S    6    1.000000
   2.70323826E+04    2.17263025E-04 
   4.05238714E+03    1.68386622E-03 
   9.22327227E+02    8.73956163E-03 
   2.61240710E+02    3.52399688E-02 
   8.53546414E+01    1.11535191E-01 
   3.10350352E+01    2.55889540E-01 
S    2    1.000000
   1.22608607E+01    3.97687309E-01 
   4.99870760E+00    2.46278494E-01 
S    1    1.000000
   1.17031082E+00    1.00000000E+00 
S    1    1.000000
   4.64747410E-01    1.00000000E+00 
S    1    1.000000
   1.85045364E-01    1.00000000E+00 
S    1    1.000000
   7.02880263E-02    1.00000000E+00 
P    4    1.000000
   6.32749548E+01    6.06851034E-03 
   1.46270494E+01    4.19125758E-02 
   4.45012235E+00    1.61538411E-01 
   1.52757996E+00    3.57069513E-01 
P    1    1.000000
   5.29351179E-01    4.47942075E-01 
P    1    1.000000
   1.74784213E-01    2.44460697E-01 
P    1    1.000000
   5.11127457E-02    1.00000000E+00 
D    1    1.000000
   2.31400000E+00    1.00000000E+00 
D    1    1.000000
   6.45000000E-01    1.00000000E+00 
F    1    1.000000
   1.42800000E+00    1.00000000E+00 
****
H    0
S    3    1.000000
   3.40613410E+01    6.02519780E-03 
   5.12357460E+00    4.50210940E-02 
   1.16466260E+00    2.01897260E-01 
S    1    1.000000
   3.27230410E-01    1.00000000E+00 
S    1    1.000000
   1.03072410E-01    1.00000000E+00 
P    1    1.000000
   8.00000000E-01    1.00000000E+00 
****
H    0
S    3    1.000000
   3.40613410E+01    6.02519780E-03 
   5.12357460E+00    4.50210940E-02 
   1.16466260E+00    2.01897260E-01 
S    1    1.000000
   3.27230410E-01    1.00000000E+00 
S    1    1.000000
   1.03072410E-01    1.00000000E+00 
P    1    1.000000
   8.00000000E-01    1.00000000E+00 
****
O    0
S    6    1.000000
   2.70323826E+04    2.17263025E-04 
   4.05238714E+03    1.68386622E-03 
   9.22327227E+02    8.73956163E-03 
   2.61240710E+02    3.52399688E-02 
   8.53546414E+01    1.11535191E-01 
   3.10350352E+01    2.55889540E-01 
S    2    1.000000
   1.22608607E+01    3.97687309E-01 
   4.99870760E+00    2.46278494E-01 
S    1    1.000000
   1.17031082E+00    1.00000000E+00 
S    1    1.000000
   4.64747410E-01    1.00000000E+00 
S    1    1.000000
   1.85045364E-01    1.00000000E+00 
S    1    1.000000
   7.02880263E-02    1.00000000E+00 
P    4    1.000000
   6.32749548E+01    6.06851034E-03 
   1.46270494E+01    4.19125758E-02 
   4.45012235E+00    1.61538411E-01 
   1.52757996E+00    3.57069513E-01 
P    1    1.000000
   5.29351179E-01    4.47942075E-01 
P    1    1.000000
   1.74784213E-01    2.44460697E-01 
P    1    1.000000
   5.11127457E-02    1.00000000E+00 
D    1    1.000000
   2.31400000E+00    1.00000000E+00 
D    1    1.000000
   6.45000000E-01    1.00000000E+00 
F    1    1.000000
   1.42800000E+00    1.00000000E+00 
****
H    0
S    3    1.000000
   3.40613410E+01    6.02519780E-03 
   5.12357460E+00    4.50210940E-02 
   1.16466260E+00    2.01897260E-01 
S    1    1.000000
   3.27230410E-01    1.00000000E+00 
S    1    1.000000
   1.03072410E-01    1.00000000E+00 
P    1    1.000000
   8.00000000E-01    1.00000000E+00 
****
O    0
S    6    1.000000
   2.70323826E+04    2.17263025E-04 
   4.05238714E+03    1.68386622E-03 
   9.22327227E+02    8.73956163E-03 
   2.61240710E+02    3.52399688E-02 
   8.53546414E+01    1.11535191E-01 
   3.10350352E+01    2.55889540E-01 
S    2    1.000000
   1.22608607E+01    3.97687309E-01 
   4.99870760E+00    2.46278494E-01 
S    1    1.000000
   1.17031082E+00    1.00000000E+00 
S    1    1.000000
   4.64747410E-01    1.00000000E+00 
S    1    1.000000
   1.85045364E-01    1.00000000E+00 
S    1    1.000000
   7.02880263E-02    1.00000000E+00 
P    4    1.000000
   6.32749548E+01    6.06851034E-03 
   1.46270494E+01    4.19125758E-02 
   4.45012235E+00    1.61538411E-01 
   1.52757996E+00    3.57069513E-01 
P    1    1.000000
   5.29351179E-01    4.47942075E-01 
P    1    1.000000
   1.74784213E-01    2.44460697E-01 
P    1    1.000000
   5.11127457E-02    1.00000000E+00 
D    1    1.000000
   2.31400000E+00    1.00000000E+00 
D    1    1.000000
   6.45000000E-01    1.00000000E+00 
F    1    1.000000
   1.42800000E+00    1.00000000E+00 
****
O    0
S    6    1.000000
   2.70323826E+04    2.17263025E-04 
   4.05238714E+03    1.68386622E-03 
   9.22327227E+02    8.73956163E-03 
   2.61240710E+02    3.52399688E-02 
   8.53546414E+01    1.11535191E-01 
   3.10350352E+01    2.55889540E-01 
S    2    1.000000
   1.22608607E+01    3.97687309E-01 
   4.99870760E+00    2.46278494E-01 
S    1    1.000000
   1.17031082E+00    1.00000000E+00 
S    1    1.000000
   4.64747410E-01    1.00000000E+00 
S    1    1.000000
   1.85045364E-01    1.00000000E+00 
S    1    1.000000
   7.02880263E-02    1.00000000E+00 
P    4    1.000000
   6.32749548E+01    6.06851034E-03 
   1.46270494E+01    4.19125758E-02 
   4.45012235E+00    1.61538411E-01 
   1.52757996E+00    3.57069513E-01 
P    1    1.000000
   5.29351179E-01    4.47942075E-01 
P    1    1.000000
   1.74784213E-01    2.44460697E-01 
P    1    1.000000
   5.11127457E-02    1.00000000E+00 
D    1    1.000000
   2.31400000E+00    1.00000000E+00 
D    1    1.000000
   6.45000000E-01    1.00000000E+00 
F    1    1.000000
   1.42800000E+00    1.00000000E+00 
****
H    0
S    3    1.000000
   3.40613410E+01    6.02519780E-03 
   5.12357460E+00    4.50210940E-02 
   1.16466260E+00    2.01897260E-01 
S    1    1.000000
   3.27230410E-01    1.00000000E+00 
S    1    1.000000
   1.03072410E-01    1.00000000E+00 
P    1    1.000000
   8.00000000E-01    1.00000000E+00 
****
H    0
S    3    1.000000
   3.40613410E+01    6.02519780E-03 
   5.12357460E+00    4.50210940E-02 
   1.16466260E+00    2.01897260E-01 
S    1    1.000000
   3.27230410E-01    1.00000000E+00 
S    1    1.000000
   1.03072410E-01    1.00000000E+00 
P    1    1.000000
   8.00000000E-01    1.00000000E+00 
****
H    0
S    3    1.000000
   3.40613410E+01    6.02519780E-03 
   5.12357460E+00    4.50210940E-02 
   1.16466260E+00    2.01897260E-01 
S    1    1.000000
   3.27230410E-01    1.00000000E+00 
S    1    1.000000
   1.03072410E-01    1.00000000E+00 
P    1    1.000000
   8.00000000E-01    1.00000000E+00 
****
H    0
S    3    1.000000
   3.40613410E+01    6.02519780E-03 
   5.12357460E+00    4.50210940E-02 
   1.16466260E+00    2.01897260E-01 
S    1    1.000000
   3.27230410E-01    1.00000000E+00 
S    1    1.000000
   1.03072410E-01    1.00000000E+00 
P    1    1.000000
   8.00000000E-01    1.00000000E+00 
****
H    0
S    3    1.000000
   3.40613410E+01    6.02519780E-03 
   5.12357460E+00    4.50210940E-02 
   1.16466260E+00    2.01897260E-01 
S    1    1.000000
   3.27230410E-01    1.00000000E+00 
S    1    1.000000
   1.03072410E-01    1.00000000E+00 
P    1    1.000000
   8.00000000E-01    1.00000000E+00 
****
C    0
S    6    1.000000
   1.35753497E+04    2.22458144E-04 
   2.03523337E+03    1.72327383E-03 
   4.63225624E+02    8.92557153E-03 
   1.31200196E+02    3.57279845E-02 
   4.28530159E+01    1.10762599E-01 
   1.55841858E+01    2.42956276E-01 
S    2    1.000000
   6.20671385E+00    4.14402634E-01 
   2.57648965E+00    2.37449687E-01 
S    1    1.000000
   5.76963394E-01    1.00000000E+00 
S    1    1.000000
   2.29728314E-01    1.00000000E+00 
S    1    1.000000
   9.51644400E-02    1.00000000E+00 
S    1    1.000000
   4.84754014E-02    1.00000000E+00 
P    4    1.000000
   3.46972322E+01    5.33336578E-03 
   7.95826228E+00    3.58641091E-02 
   2.37808269E+00    1.42158733E-01 
   8.14332082E-01    3.42704718E-01 
P    1    1.000000
   2.88875473E-01    4.64458224E-01 
P    1    1.000000
   1.00568237E-01    2.49557899E-01 
D    1    1.000000
   1.09700000E+00    1.00000000E+00 
D    1    1.000000
   3.18000000E-01    1.00000000E+00 
F    1    1.000000
   7.61000000E-01    1.00000000E+00 
****
H    0
S    3    1.000000
   3.40613410E+01    6.02519780E-03 
   5.12357460E+00    4.50210940E-02 
   1.16466260E+00    2.01897260E-01 
S    1    1.000000
   3.27230410E-01    1.00000000E+00 
S    1    1.000000
   1.03072410E-01    1.00000000E+00 
P    1    1.000000
   8.00000000E-01    1.00000000E+00 
****
H    0
S    3    1.000000
   3.40613410E+01    6.02519780E-03 
   5.12357460E+00    4.50210940E-02 
   1.16466260E+00    2.01897260E-01 
S    1    1.000000
   3.27230410E-01    1.00000000E+00 
S    1    1.000000
   1.03072410E-01    1.00000000E+00 
P    1    1.000000
   8.00000000E-01    1.00000000E+00 
****
H    0
S    3    1.000000
   3.40613410E+01    6.02519780E-03 
   5.12357460E+00    4.50210940E-02 
   1.16466260E+00    2.01897260E-01 
S    1    1.000000
   3.27230410E-01    1.00000000E+00 
S    1    1.000000
   1.03072410E-01    1.00000000E+00 
P    1    1.000000
   8.00000000E-01    1.00000000E+00 
****
O    0
S    6    1.000000
   2.70323826E+04    2.17263025E-04 
   4.05238714E+03    1.68386622E-03 
   9.22327227E+02    8.73956163E-03 
   2.61240710E+02    3.52399688E-02 
   8.53546414E+01    1.11535191E-01 
   3.10350352E+01    2.55889540E-01 
S    2    1.000000
   1.22608607E+01    3.97687309E-01 
   4.99870760E+00    2.46278494E-01 
S    1    1.000000
   1.17031082E+00    1.00000000E+00 
S    1    1.000000
   4.64747410E-01    1.00000000E+00 
S    1    1.000000
   1.85045364E-01    1.00000000E+00 
S    1    1.000000
   7.02880263E-02    1.00000000E+00 
P    4    1.000000
   6.32749548E+01    6.06851034E-03 
   1.46270494E+01    4.19125758E-02 
   4.45012235E+00    1.61538411E-01 
   1.52757996E+00    3.57069513E-01 
P    1    1.000000
   5.29351179E-01    4.47942075E-01 
P    1    1.000000
   1.74784213E-01    2.44460697E-01 
P    1    1.000000
   5.11127457E-02    1.00000000E+00 
D    1    1.000000
   2.31400000E+00    1.00000000E+00 
D    1    1.000000
   6.45000000E-01    1.00000000E+00 
F    1    1.000000
   1.42800000E+00    1.00000000E+00 
****
C    0
S    6    1.000000
   1.35753497E+04    2.22458144E-04 
   2.03523337E+03    1.72327383E-03 
   4.63225624E+02    8.92557153E-03 
   1.31200196E+02    3.57279845E-02 
   4.28530159E+01    1.10762599E-01 
   1.55841858E+01    2.42956276E-01 
S    2    1.000000
   6.20671385E+00    4.14402634E-01 
   2.57648965E+00    2.37449687E-01 
S    1    1.000000
   5.76963394E-01    1.00000000E+00 
S    1    1.000000
   2.29728314E-01    1.00000000E+00 
S    1    1.000000
   9.51644400E-02    1.00000000E+00 
S    1    1.000000
   4.84754014E-02    1.00000000E+00 
P    4    1.000000
   3.46972322E+01    5.33336578E-03 
   7.95826228E+00    3.58641091E-02 
   2.37808269E+00    1.42158733E-01 
   8.14332082E-01    3.42704718E-01 
P    1    1.000000
   2.88875473E-01    4.64458224E-01 
P    1    1.000000
   1.00568237E-01    2.49557899E-01 
D    1    1.000000
   1.09700000E+00    1.00000000E+00 
D    1    1.000000
   3.18000000E-01    1.00000000E+00 
F    1    1.000000
   7.61000000E-01    1.00000000E+00 
****
H    0
S    3    1.000000
   3.40613410E+01    6.02519780E-03 
   5.12357460E+00    4.50210940E-02 
   1.16466260E+00    2.01897260E-01 
S    1    1.000000
   3.27230410E-01    1.00000000E+00 
S    1    1.000000
   1.03072410E-01    1.00000000E+00 
P    1    1.000000
   8.00000000E-01    1.00000000E+00 
****
H    0
S    3    1.000000
   3.40613410E+01    6.02519780E-03 
   5.12357460E+00    4.50210940E-02 
   1.16466260E+00    2.01897260E-01 
S    1    1.000000
   3.27230410E-01    1.00000000E+00 
S    1    1.000000
   1.03072410E-01    1.00000000E+00 
P    1    1.000000
   8.00000000E-01    1.00000000E+00 
****
H    0
S    3    1.000000
   3.40613410E+01    6.02519780E-03 
   5.12357460E+00    4.50210940E-02 
   1.16466260E+00    2.01897260E-01 
S    1    1.000000
   3.27230410E-01    1.00000000E+00 
S    1    1.000000
   1.03072410E-01    1.00000000E+00 
P    1    1.000000
   8.00000000E-01    1.00000000E+00 
****
$end
-----------------------------------------------------------------------
 There are 355 shells and 879 basis functions

 Total QAlloc Memory Limit  64000 MB
 Mega-Array Size      1956 MB
 MEM_STATIC part      2000 MB

 User-specified dielectric constants (eps_0 = 78.39, eps_inf = 1.78)
 Using C-PCM dielectric factor f(eps) = (eps-1)/eps = 0.987243
 Static dielectric constant eps = 78.39
 Discretize the solute cavity surface with Lebedev spheres
	Using 110 Lebedev grid points for each H atom
	Using 194 Lebedev grid points for other atoms
	Atomic van der Waals radii (Bondi set) will be scaled by 1.20
 Using smooth SwiG surface discretization
 Remove points where switching function is < 1.0e-08
 Keep 2551 surface tesserae and discard 3755 interior tesserae
 Molecular Surface Area = 348.419 Angst**2

 A cutoff of  1.0D-12 yielded  43017 shell pairs
 There are    246449 function pairs (    310756 Cartesian)
 Smallest overlap matrix eigenvalue = 3.75E-06

 Scale SEOQF with 1.000000e-02/1.000000e-02/1.000000e-01

 Standard Electronic Orientation quadrupole field applied
 Nucleus-field energy     =    -0.0000000076 hartrees
 Guess from superposition of atomic densities
 Warning:  Energy on first SCF cycle will be non-variational
 SAD guess density has 173.000000 electrons

 -----------------------------------------------------------------------
  General SCF calculation program by
  Eric Jon Sundstrom, Paul Horn, Yuezhi Mao, Dmitri Zuev, Alec White,
  David Stuck, Shaama M.S., Shane Yost, Joonho Lee, David Small,
  Daniel Levine, Susi Lehtola, Hugh Burton, Evgeny Epifanovsky,
  Bang C. Huynh
 -----------------------------------------------------------------------
 Exchange:     0.1900 Hartree-Fock + 0.3500 B88 + 0.4600 muB88 + LR-HF
 Correlation:  0.1900 VWN5 + 0.8100 LYP
 Using SG-1 standard quadrature grid
 using 16 threads for integral computing
 -------------------------------------------------------
 OpenMP Integral computing Module                
 Release: version 1.0, May 2013, Q-Chem Inc. Pittsburgh 
 -------------------------------------------------------
 C-PCM solvent model [f = (eps-1)/eps], solve by matrix inversion
 DFT Correlation          Energy =  -7.03002663516846
 DFT Exchange             Energy = -106.97784915895578
 HF Exchange              Energy = -44.09862069993863
 One-Electron             Energy = -5599.44192068032316
 SCRF wf-dependent energy Energy =   0.00000000000000
 Total Coulomb            Energy = 2554.18431199163933
 Nuclear repulsion Energy = 2012.80750344919943
 A restricted SCF calculation will be
 performed using DIIS
 SCF converges when DIIS error is below 1.0e-08
 DFT Correlation          Energy =  -7.03002663516846
 DFT Exchange             Energy = -106.97784915895578
 HF Exchange              Energy = -44.09862069993863
 One-Electron             Energy = -5599.44192068032316
 SCRF wf-dependent energy Energy =   0.00000000000000
 Total Coulomb            Energy = 2554.18431199163933
 ---------------------------------------
  Cycle       Energy         DIIS error
 ---------------------------------------
 DFT Correlation          Energy =  -7.08106349256560
 DFT Exchange             Energy = -108.96537054622145
 HF Exchange              Energy = -42.39968227274891
 One-Electron             Energy = -5581.57233514497875
 SCRF wf-dependent energy Energy = -18.72079560511725
 Total Coulomb            Energy = 2563.00679398310467
 Nuclear repulsion Energy = 2012.80750344919943
    1   -1190.5566017335      1.96e-02  
 DFT Correlation          Energy =  -7.03146374607434
 DFT Exchange             Energy = -107.49090711023001
 HF Exchange              Energy = -42.00200805942676
 One-Electron             Energy = -5569.49891296383794
 SCRF wf-dependent energy Energy = -17.87477526116527
 Total Coulomb            Energy = 2548.15455313165739
 Nuclear repulsion Energy = 2012.80750344919943
    2   -1182.9249496293      1.80e-03  
 DFT Correlation          Energy =  -7.05423912692774
 DFT Exchange             Energy = -108.22917668504776
 HF Exchange              Energy = -42.22078185637092
 One-Electron             Energy = -5573.95702849689587
 SCRF wf-dependent energy Energy = -18.71990775072118
 Total Coulomb            Energy = 2554.20211691677605
 Nuclear repulsion Energy = 2012.80750344919943
    3   -1182.9360105599      1.89e-03  
 DFT Correlation          Energy =  -7.05452488142218
 DFT Exchange             Energy = -108.20771351769751
 HF Exchange              Energy = -42.21417196150990
 One-Electron             Energy = -5575.02847312281574
 SCRF wf-dependent energy Energy = -18.38168074444638
 Total Coulomb            Energy = 2554.90268422299368
 Nuclear repulsion Energy = 2012.80750344919943
    4   -1183.1715135500      2.74e-04  
 DFT Correlation          Energy =  -7.05438784932342
 DFT Exchange             Energy = -108.21296944315837
 HF Exchange              Energy = -42.21670697284295
 One-Electron             Energy = -5574.81040437440333
 SCRF wf-dependent energy Energy = -18.45592917521230
 Total Coulomb            Energy = 2554.76572471395093
 Nuclear repulsion Energy = 2012.80750344919943
    5   -1183.1763765557      1.02e-04  
 DFT Correlation          Energy =  -7.05413688792826
 DFT Exchange             Energy = -108.20664815724541
 HF Exchange              Energy = -42.21544810651334
 One-Electron             Energy = -5574.70528939136693
 SCRF wf-dependent energy Energy = -18.45705622169203
 Total Coulomb            Energy = 2554.65382054372867
 Nuclear repulsion Energy = 2012.80750344919943
    6   -1183.1771696518      3.22e-05  
 DFT Correlation          Energy =  -7.05420279182767
 DFT Exchange             Energy = -108.20792101179207
 HF Exchange              Energy = -42.21588593143497
 One-Electron             Energy = -5574.73726185422584
 SCRF wf-dependent energy Energy = -18.45497970542124
 Total Coulomb            Energy = 2554.68548505097806
 Nuclear repulsion Energy = 2012.80750344919943
    7   -1183.1772547718      8.48e-06  
 DFT Correlation          Energy =  -7.05422169691046
 DFT Exchange             Energy = -108.20847121369216
 HF Exchange              Energy = -42.21607373750458
 One-Electron             Energy = -5574.75104912578354
 SCRF wf-dependent energy Energy = -18.45211585801280
 Total Coulomb            Energy = 2554.69716382923934
 Nuclear repulsion Energy = 2012.80750344919943
    8   -1183.1772627945      3.16e-06  
 DFT Correlation          Energy =  -7.05421164973082
 DFT Exchange             Energy = -108.20817096264173
 HF Exchange              Energy = -42.21602512176140
 One-Electron             Energy = -5574.74543801020536
 SCRF wf-dependent energy Energy = -18.45282725918014
 Total Coulomb            Energy = 2554.69190474155630
 Nuclear repulsion Energy = 2012.80750344919943
    9   -1183.1772643535      1.34e-06  
 DFT Correlation          Energy =  -7.05421131564366
 DFT Exchange             Energy = -108.20820782216219
 HF Exchange              Energy = -42.21604556320266
 One-Electron             Energy = -5574.74553438149360
 SCRF wf-dependent energy Energy = -18.45267216273214
 Total Coulomb            Energy = 2554.69190289251173
 Nuclear repulsion Energy = 2012.80750344919943
   10   -1183.1772648128      5.14e-07  
 DFT Correlation          Energy =  -7.05421229529173
 DFT Exchange             Energy = -108.20821280713241
 HF Exchange              Energy = -42.21604922045628
 One-Electron             Energy = -5574.74628521449631
 SCRF wf-dependent energy Energy = -18.45250513537349
 Total Coulomb            Energy = 2554.69249629129808
 Nuclear repulsion Energy = 2012.80750344919943
   11   -1183.1772649035      3.11e-07  
 DFT Correlation          Energy =  -7.05421218207282
 DFT Exchange             Energy = -108.20821763532449
 HF Exchange              Energy = -42.21605099479611
 One-Electron             Energy = -5574.74640195868869
 SCRF wf-dependent energy Energy = -18.45243516928190
 Total Coulomb            Energy = 2554.69254955386850
 Nuclear repulsion Energy = 2012.80750344919943
   12   -1183.1772649323      8.78e-08  
 DFT Correlation          Energy =  -7.05421200116231
 DFT Exchange             Energy = -108.20821023169231
 HF Exchange              Energy = -42.21604884796710
 One-Electron             Energy = -5574.74640622178140
 SCRF wf-dependent energy Energy = -18.45239585564764
 Total Coulomb            Energy = 2554.69250477095147
 Nuclear repulsion Energy = 2012.80750344919943
   13   -1183.1772649371      6.65e-08  
 DFT Correlation          Energy =  -7.05421209044442
 DFT Exchange             Energy = -108.20821297202370
 HF Exchange              Energy = -42.21604948184742
 One-Electron             Energy = -5574.74650004389423
 SCRF wf-dependent energy Energy = -18.45236739508300
 Total Coulomb            Energy = 2554.69257359603262
 Nuclear repulsion Energy = 2012.80750344919943
   14   -1183.1772649381      1.91e-08  
   15   -1183.1772649381      7.44e-09  Convergence criterion met
 ---------------------------------------
 DFT Correlation          Energy =  -7.05421209044442
 DFT Exchange             Energy = -108.20821297202370
 HF Exchange              Energy = -42.21604948184742
 One-Electron             Energy = -5574.74650004389423
 SCRF wf-dependent energy Energy = -18.45236739508300
 Total Coulomb            Energy = 2554.69257359603262
 Final Alpha MO Eigenvalues
            1           2           3           4           5           6
    1 -19.3221842 -19.2580868 -19.2579368 -19.2565061 -19.2511154 -19.2479986
            7           8           9          10          11          12
    1 -19.2426310 -10.3891566 -10.3656237 -10.3574819 -10.3562060 -10.3549851
           13          14          15          16          17          18
    1 -10.3354036 -10.3285022 -10.3282792 -10.3148768 -10.2998961 -10.2977459
           19          20          21          22          23          24
    1 -10.2951417 -10.2917657 -10.2719807 -10.2692657 -10.2680244 -10.2664887
           25          26          27          28          29          30
    1  -1.2508096  -1.1827569  -1.1765028  -1.1753520  -1.1716182  -1.1606164
           31          32          33          34          35          36
    1  -1.1456067  -0.9888903  -0.9679121  -0.9398189  -0.9047242  -0.8632182
           37          38          39          40          41          42
    1  -0.8560619  -0.8500425  -0.8054440  -0.7969589  -0.7793220  -0.7719190
           43          44          45          46          47          48
    1  -0.7336996  -0.7232642  -0.7051094  -0.6828983  -0.6626018  -0.6501301
           49          50          51          52          53          54
    1  -0.6454326  -0.6346613  -0.6158174  -0.6037565  -0.5949847  -0.5927048
           55          56          57          58          59          60
    1  -0.5824171  -0.5745298  -0.5614023  -0.5581629  -0.5516182  -0.5457169
           61          62          63          64          65          66
    1  -0.5362224  -0.5279199  -0.5254421  -0.5102054  -0.5072208  -0.5062137
           67          68          69          70          71          72
    1  -0.5018225  -0.4951424  -0.4936324  -0.4857610  -0.4792285  -0.4699725
           73          74          75          76          77          78
    1  -0.4570403  -0.4484141  -0.4475977  -0.4344079  -0.4255293  -0.4221061
           79          80          81          82          83          84
    1  -0.4211290  -0.4139223  -0.3970898  -0.3738892  -0.3322810  -0.3029743
           85          86          87          88          89          90
    1  -0.3003038  -0.2713767  -0.0902080  -0.0101858   0.0227451   0.0238585
           91          92          93          94          95          96
    1   0.0292360   0.0341018   0.0380216   0.0412611   0.0442192   0.0479462
           97          98          99         100         101         102
    1   0.0566285   0.0577586   0.0679880   0.0709221   0.0764035   0.0830332
          103         104         105         106         107         108
    1   0.0870746   0.0873795   0.0969947   0.0978304   0.1013443   0.1066057
          109         110         111         112         113         114
    1   0.1093046   0.1115716   0.1160128   0.1209977   0.1269818   0.1320240
          115         116         117         118         119         120
    1   0.1331192   0.1350151   0.1436496   0.1476233   0.1510948   0.1564295
          121         122         123         124         125         126
    1   0.1603253   0.1641754   0.1707143   0.1783693   0.1811513   0.1838176
          127         128         129         130         131         132
    1   0.1863392   0.1900821   0.1947421   0.1978953   0.2033073   0.2059547
          133         134         135         136         137         138
    1   0.2118253   0.2176922   0.2219680   0.2237964   0.2273670   0.2284778
          139         140         141         142         143         144
    1   0.2302174   0.2337352   0.2375313   0.2439093   0.2496888   0.2545855
          145         146         147         148         149         150
    1   0.2558708   0.2594196   0.2653108   0.2726098   0.2746435   0.2786444
          151         152         153         154         155         156
    1   0.2795117   0.2824811   0.2878924   0.2927912   0.2951239   0.3013577
          157         158         159         160         161         162
    1   0.3021474   0.3039901   0.3077282   0.3109671   0.3149317   0.3177671
          163         164         165         166         167         168
    1   0.3223337   0.3242959   0.3325701   0.3328047   0.3339881   0.3412134
          169         170         171         172         173         174
    1   0.3462128   0.3520187   0.3561486   0.3573950   0.3617029   0.3627610
          175         176         177         178         179         180
    1   0.3694045   0.3739062   0.3746504   0.3789499   0.3799541   0.3864133
          181         182         183         184         185         186
    1   0.3930453   0.3938520   0.3958143   0.4050836   0.4083443   0.4163039
          187         188         189         190         191         192
    1   0.4212705   0.4241093   0.4294602   0.4340043   0.4382586   0.4427147
          193         194         195         196         197         198
    1   0.4468496   0.4481910   0.4515029   0.4570456   0.4574646   0.4600028
          199         200         201         202         203         204
    1   0.4658448   0.4691514   0.4707053   0.4743101   0.4783492   0.4809667
          205         206         207         208         209         210
    1   0.4836294   0.4883155   0.4918811   0.4965117   0.5029364   0.5098441
          211         212         213         214         215         216
    1   0.5130779   0.5139693   0.5196911   0.5233732   0.5282667   0.5324578
          217         218         219         220         221         222
    1   0.5334062   0.5421654   0.5487361   0.5527486   0.5611801   0.5638827
          223         224         225         226         227         228
    1   0.5705518   0.5726164   0.5741288   0.5787801   0.5890014   0.5918987
          229         230         231         232         233         234
    1   0.6031938   0.6065982   0.6096437   0.6130597   0.6194329   0.6263779
          235         236         237         238         239         240
    1   0.6301981   0.6336234   0.6354347   0.6398290   0.6459648   0.6492474
          241         242         243         244         245         246
    1   0.6547911   0.6581890   0.6630442   0.6641768   0.6657148   0.6776032
          247         248         249         250         251         252
    1   0.6852848   0.6868720   0.6947463   0.6977357   0.7046916   0.7099702
          253         254         255         256         257         258
    1   0.7150053   0.7234009   0.7247852   0.7302575   0.7340169   0.7394532
          259         260         261         262         263         264
    1   0.7465592   0.7561958   0.7605307   0.7623439   0.7651860   0.7683376
          265         266         267         268         269         270
    1   0.7695319   0.7761573   0.7828365   0.7874532   0.7904224   0.7947255
          271         272         273         274         275         276
    1   0.8000765   0.8038306   0.8045948   0.8090269   0.8116435   0.8218425
          277         278         279         280         281         282
    1   0.8290755   0.8354584   0.8358883   0.8420282   0.8453208   0.8523127
          283         284         285         286         287         288
    1   0.8661805   0.8726352   0.8756239   0.8843544   0.8928530   0.8944780
          289         290         291         292         293         294
    1   0.9000569   0.9033560   0.9108466   0.9158133   0.9254624   0.9325023
          295         296         297         298         299         300
    1   0.9383012   0.9457554   0.9656982   0.9738736   0.9782103   0.9897928
          301         302         303         304         305         306
    1   0.9993858   1.0073940   1.0276223   1.0290909   1.0316769   1.0416127
          307         308         309         310         311         312
    1   1.0442152   1.0556972   1.0578305   1.0664897   1.0674932   1.0776730
          313         314         315         316         317         318
    1   1.0866945   1.1037807   1.1044379   1.1098504   1.1139467   1.1157012
          319         320         321         322         323         324
    1   1.1210654   1.1339180   1.1453387   1.1469126   1.1552422   1.1697945
          325         326         327         328         329         330
    1   1.1762068   1.1812874   1.1888447   1.1924236   1.1989898   1.2030977
          331         332         333         334         335         336
    1   1.2082962   1.2128579   1.2186116   1.2258501   1.2373644   1.2482229
          337         338         339         340         341         342
    1   1.2606065   1.2725578   1.2778798   1.2907508   1.2959287   1.3016079
          343         344         345         346         347         348
    1   1.3053799   1.3191203   1.3260950   1.3330775   1.3529677   1.3626675
          349         350         351         352         353         354
    1   1.3745124   1.3838268   1.3855402   1.3949775   1.4060403   1.4130145
          355         356         357         358         359         360
    1   1.4244869   1.4342073   1.4397998   1.4505020   1.4581512   1.4681090
          361         362         363         364         365         366
    1   1.4738347   1.4839013   1.4859998   1.4992990   1.5042584   1.5059365
          367         368         369         370         371         372
    1   1.5237558   1.5292267   1.5354750   1.5419675   1.5461681   1.5649237
          373         374         375         376         377         378
    1   1.5729900   1.5739995   1.5787397   1.5802422   1.5864092   1.5913286
          379         380         381         382         383         384
    1   1.5948013   1.6012472   1.6050675   1.6067315   1.6284395   1.6306276
          385         386         387         388         389         390
    1   1.6356943   1.6514206   1.6541379   1.6591976   1.6732524   1.6816011
          391         392         393         394         395         396
    1   1.6957529   1.6972697   1.7034915   1.7065084   1.7113810   1.7149533
          397         398         399         400         401         402
    1   1.7230836   1.7285949   1.7323637   1.7364383   1.7498065   1.7552403
          403         404         405         406         407         408
    1   1.7592580   1.7668972   1.7782419   1.7860622   1.7954783   1.8001709
          409         410         411         412         413         414
    1   1.8119267   1.8346766   1.8391934   1.8499693   1.8528971   1.8559289
          415         416         417         418         419         420
    1   1.8693130   1.8823893   1.8929503   1.9026186   1.9092194   1.9196142
          421         422         423         424         425         426
    1   1.9310447   1.9368262   1.9486632   1.9509262   1.9622916   1.9687032
          427         428         429         430         431         432
    1   1.9790384   1.9934657   1.9989261   2.0018048   2.0159574   2.0244109
          433         434         435         436         437         438
    1   2.0285286   2.0379784   2.0504398   2.0591125   2.0632887   2.0654777
          439         440         441         442         443         444
    1   2.0738677   2.0790517   2.0824067   2.0877828   2.1007861   2.1146603
          445         446         447         448         449         450
    1   2.1216174   2.1312347   2.1370846   2.1467829   2.1571351   2.1676370
          451         452         453         454         455         456
    1   2.1699134   2.1771181   2.1813177   2.1894630   2.1986370   2.2022888
          457         458         459         460         461         462
    1   2.2054909   2.2150160   2.2228570   2.2309683   2.2354548   2.2362329
          463         464         465         466         467         468
    1   2.2411381   2.2470427   2.2589892   2.2758171   2.2853558   2.2912393
          469         470         471         472         473         474
    1   2.3040869   2.3224889   2.3302158   2.3396855   2.3456609   2.3486985
          475         476         477         478         479         480
    1   2.3499504   2.3528949   2.3619570   2.3728089   2.3809985   2.4002963
          481         482         483         484         485         486
    1   2.4129356   2.4208768   2.4281266   2.4434553   2.4561345   2.4612137
          487         488         489         490         491         492
    1   2.4625618   2.4713826   2.4844759   2.4909360   2.5025452   2.5098195
          493         494         495         496         497         498
    1   2.5153115   2.5334563   2.5353504   2.5399972   2.5641891   2.5689927
          499         500         501         502         503         504
    1   2.5769785   2.5841217   2.5879026   2.5930966   2.5963033   2.6002650
          505         506         507         508         509         510
    1   2.6057064   2.6247286   2.6280752   2.6396606   2.6526396   2.6727357
          511         512         513         514         515         516
    1   2.6744504   2.6823668   2.6850559   2.6873290   2.6952767   2.7041876
          517         518         519         520         521         522
    1   2.7100647   2.7228879   2.7300906   2.7402309   2.7443170   2.7555706
          523         524         525         526         527         528
    1   2.7594120   2.7739642   2.7823853   2.7869524   2.7910751   2.8000977
          529         530         531         532         533         534
    1   2.8029517   2.8057746   2.8138997   2.8267375   2.8398505   2.8451730
          535         536         537         538         539         540
    1   2.8531462   2.8605905   2.8653297   2.8709894   2.8762490   2.8802742
          541         542         543         544         545         546
    1   2.8856976   2.8949420   2.8985020   2.9061319   2.9149000   2.9229027
          547         548         549         550         551         552
    1   2.9307073   2.9349605   2.9444252   2.9492501   2.9532088   2.9706538
          553         554         555         556         557         558
    1   2.9740952   2.9848477   2.9873297   2.9908853   2.9992804   3.0105411
          559         560         561         562         563         564
    1   3.0156588   3.0175323   3.0209316   3.0248418   3.0297156   3.0409163
          565         566         567         568         569         570
    1   3.0603205   3.0664169   3.0702058   3.0716483   3.0736000   3.0847994
          571         572         573         574         575         576
    1   3.1045543   3.1135313   3.1195197   3.1251258   3.1310050   3.1387287
          577         578         579         580         581         582
    1   3.1399643   3.1508241   3.1521870   3.1596538   3.1715107   3.1778346
          583         584         585         586         587         588
    1   3.1854693   3.1915862   3.2087234   3.2110190   3.2122018   3.2197632
          589         590         591         592         593         594
    1   3.2215844   3.2290722   3.2348524   3.2389950   3.2474937   3.2566218
          595         596         597         598         599         600
    1   3.2644214   3.2657418   3.2748471   3.2794900   3.2905324   3.2959540
          601         602         603         604         605         606
    1   3.3037534   3.3049324   3.3104995   3.3198047   3.3279439   3.3342298
          607         608         609         610         611         612
    1   3.3376051   3.3467434   3.3573154   3.3607672   3.3685805   3.3760310
          613         614         615         616         617         618
    1   3.3840170   3.3888451   3.3926469   3.3947912   3.3976888   3.4090595
          619         620         621         622         623         624
    1   3.4184442   3.4221684   3.4268391   3.4277330   3.4333795   3.4471966
          625         626         627         628         629         630
    1   3.4486248   3.4531342   3.4611599   3.4664803   3.4750702   3.4807675
          631         632         633         634         635         636
    1   3.4840175   3.4869978   3.4982350   3.5012006   3.5070730   3.5126060
          637         638         639         640         641         642
    1   3.5185631   3.5262935   3.5322614   3.5416601   3.5592451   3.5668708
          643         644         645         646         647         648
    1   3.5740944   3.5800710   3.5940769   3.5973514   3.5993281   3.6028889
          649         650         651         652         653         654
    1   3.6128669   3.6143231   3.6236142   3.6305818   3.6388444   3.6434252
          655         656         657         658         659         660
    1   3.6581567   3.6673491   3.6682871   3.6830445   3.6950846   3.6981070
          661         662         663         664         665         666
    1   3.7076483   3.7183449   3.7392788   3.7416362   3.7444814   3.7552700
          667         668         669         670         671         672
    1   3.7715974   3.7782449   3.7932247   3.8089306   3.8432083   3.8665859
          673         674         675         676         677         678
    1   3.8676249   3.8805386   3.8855719   3.8972491   3.9149183   3.9331149
          679         680         681         682         683         684
    1   3.9413939   3.9613603   3.9648253   4.0241890   4.0307325   4.0346216
          685         686         687         688         689         690
    1   4.0408877   4.0442931   4.0577635   4.0723268   4.0869234   4.1051537
          691         692         693         694         695         696
    1   4.1226535   4.1344691   4.1432778   4.1523951   4.1614307   4.2078766
          697         698         699         700         701         702
    1   4.2088106   4.2095436   4.2188909   4.2212184   4.2325238   4.2339630
          703         704         705         706         707         708
    1   4.2477455   4.2554859   4.2665082   4.2698695   4.2751896   4.2847788
          709         710         711         712         713         714
    1   4.2887271   4.3099057   4.3265604   4.3366050   4.3459766   4.3736117
          715         716         717         718         719         720
    1   4.3955180   4.4154356   4.4212699   4.4286476   4.4405235   4.4523850
          721         722         723         724         725         726
    1   4.4643515   4.4826652   4.4987175   4.5007766   4.5199192   4.5400015
          727         728         729         730         731         732
    1   4.5456775   4.5801468   4.5906072   4.6134642   4.6220209   4.6346145
          733         734         735         736         737         738
    1   4.6543776   4.6577764   4.6630384   4.6716337   4.6883857   4.6944378
          739         740         741         742         743         744
    1   4.7058411   4.7169757   4.7639773   4.8084926   4.8420135   4.8782105
          745         746         747         748         749         750
    1   4.8881686   4.8925553   4.9299621   4.9368335   4.9504228   4.9794616
          751         752         753         754         755         756
    1   5.0013890   5.0236843   5.0746588   5.0890037   5.0976816   5.1436529
          757         758         759         760         761         762
    1   5.1805286   5.1891251   5.2033997   5.2431458   5.2723464   5.2875963
          763         764         765         766         767         768
    1   5.2920328   5.3024897   5.3069839   5.3118469   5.3340134   5.3547940
          769         770         771         772         773         774
    1   5.3680936   5.3868812   5.4066034   5.4138350   5.4502997   5.4666498
          775         776         777         778         779         780
    1   5.4971560   5.5151840   5.5201694   5.5226185   5.5435433   5.5484684
          781         782         783         784         785         786
    1   5.5551397   5.5569507   5.5733282   5.5832176   5.6583147   5.6709313
          787         788         789         790         791         792
    1   5.7142031   5.7235922   5.7593166   5.7760075   5.8069172   5.8151767
          793         794         795         796         797         798
    1   5.8209639   5.8615770   5.8799209   5.9005850   5.9571138   5.9645443
          799         800         801         802         803         804
    1   5.9977890   6.0345267   6.0518365   6.0653993   6.0870211   6.1095983
          805         806         807         808         809         810
    1   6.1634190   6.1930819   6.2386445   6.2669894   6.3972066   6.3984474
          811         812         813         814         815         816
    1   6.4128043   6.4442493   6.4565679   6.4652948   6.4734733   6.4768209
          817         818         819         820         821         822
    1   6.4790261   6.4896056   6.5169261   6.5712684   6.5990171   6.6440816
          823         824         825         826         827         828
    1   6.6791645   6.6891773   6.6930703   6.7694518   6.7739297   6.7832364
          829         830         831         832         833         834
    1   6.7839912   6.7939786   6.8809967   6.8994964   6.9183741   6.9187591
          835         836         837         838         839         840
    1   6.9278571   6.9313441   6.9420213   6.9490615   6.9781729   6.9911558
          841         842         843         844         845         846
    1   7.0315834   7.0956419   7.1170527   7.1444297   7.1513507   7.2737098
          847         848         849         850         851         852
    1   7.2778277   7.3677990   7.4001388   7.4086524   7.4234220   7.4949673
          853         854         855         856         857         858
    1   7.5465885   7.5661778   7.5781697  22.4470748  22.4687785  22.4913679
          859         860         861         862         863         864
    1  22.6231585  22.8090147  22.8436954  22.8988639  22.9269308  22.9819036
          865         866         867         868         869         870
    1  23.0300180  23.0676680  23.1005496  23.1282407  23.1998495  23.3830543
          871         872         873         874         875         876
    1  23.6303658  23.6719200  44.0935542  44.1122720  44.1394752  44.1788283
          877         878         879
    1  44.3994544  44.4356559  44.7146913
 SCF time:   CPU 6433.03s  wall 557.00s 
 DFT Correlation          Energy =  -7.05421209044442
 DFT Exchange             Energy = -108.20821297202370
 HF Exchange              Energy = -42.21604948184742
 One-Electron             Energy = -5574.74650004389423
 SCRF wf-dependent energy Energy = -18.45236739508300
 Total Coulomb            Energy = 2554.69257359603262
 Nuclear repulsion Energy = 2012.80750344919943

************** Final PCM Free Energy Summary **************
 G_electrostatic  =      -0.09641332 hartree =     -60.50027200 kcal/mol
 G_cavitation     =       0.00000000 hartree =       0.00000000 kcal/mol
 G_dispersion     =       0.00000000 hartree =       0.00000000 kcal/mol
 G_repulsion      =       0.00000000 hartree =       0.00000000 kcal/mol
 --------------------------------------------------
 Non-electrostatic Free Energy =       0.00000000 hartree =       0.00000000 kcal/mol
 Total                         =      -0.09641332 hartree =     -60.50027200 kcal/mol
 --------------------------------------------------
 SCF Energy (H0 + V/2)                       =   -1183.17726494 
 Solute Internal Energy (H0)                 =   -1183.08085162 
 Total Free Energy (H0 + V/2 + non-elec)     =   -1183.17726494 hartree
                                             = -742454.94324465 kcal/mol
***********************************************************

 SCF   energy = -1183.17726494
 Total energy = -1183.17726494
 MAX_CIS_SUBSPACE fits in available memory
 Direct TDDFT/TDA calculation will be performed
 Exchange:     0.1900 Hartree-Fock + 0.3500 B88 + 0.4600 muB88 + LR-HF
 Correlation:  0.1900 VWN5 + 0.8100 LYP
 Using SG-1 standard quadrature grid
 Triplet excitation energies requested
 Singlet excitation energies requested
 Adding PCM contribution to the XC response (LR-PCM)
 Optical dielectric constant (eps_inf) =  1.78
 CIS energy converged when residual is below 10e- 6
 ---------------------------------------------------
 Iter    Rts Conv    Rts Left    Ttl Dev     Max Dev
 ---------------------------------------------------
   1         0           7      0.000841    0.000140
   2         0           7      0.000323    0.000069
   3         0           7      0.000211    0.000116
   4         0           7      0.000129    0.000086
   5         2           5      0.000077    0.000062
   6         4           3      0.000040    0.000034
   7         6           1      0.000018    0.000015
   8         6           1      0.000008    0.000005
   9         6           1      0.000004    0.000002
  10         7           0      0.000002    0.000001    Roots Converged
 ---------------------------------------------------
 Triplets done: starting singlet calculation
 ---------------------------------------------------
 Iter    Rts Conv    Rts Left    Ttl Dev     Max Dev
 ---------------------------------------------------
  11         0           7      0.002199    0.000394
  12         0           7      0.000588    0.000146
  13         0           7      0.000335    0.000083
  14         0           7      0.000216    0.000065
  15         0           7      0.000125    0.000051
  16         3           4      0.000072    0.000032
  17         3           4      0.000036    0.000016
  18         4           3      0.000021    0.000009
  19         5           2      0.000013    0.000006
  20         5           2      0.000006    0.000002
  21         5           2      0.000004    0.000001
  22         7           0      0.000003    0.000001    Roots Converged
 ---------------------------------------------------
 
 ---------------------------------------------------
         TDDFT/TDA Excitation Energies              
 ---------------------------------------------------

 Excited state   1: excitation energy (eV) =       1.7802
 Total energy for state   1:                 -1183.11184327 au
    Multiplicity: Triplet
    Trans. Mom.:  0.0000 X   0.0000 Y   0.0000 Z
    Strength   :     0.0000000000
    D(   82) --> V(    1) amplitude =  0.1493
    D(   83) --> V(    1) amplitude = -0.1230
    D(   84) --> V(    1) amplitude =  0.2264
    D(   84) --> V(    2) amplitude = -0.0833
    D(   86) --> V(    1) amplitude =  0.9340

 Excited state   2: excitation energy (eV) =       2.6447
 Total energy for state   2:                 -1183.08007249 au
    Multiplicity: Triplet
    Trans. Mom.:  0.0000 X   0.0000 Y   0.0000 Z
    Strength   :     0.0000000000
    D(   81) --> V(    1) amplitude = -0.1333
    D(   83) --> V(    3) amplitude =  0.0962
    D(   84) --> V(    1) amplitude =  0.8698
    D(   85) --> V(    1) amplitude =  0.1888
    D(   86) --> V(    1) amplitude = -0.2069
    D(   86) --> V(    2) amplitude = -0.2764
    D(   86) --> V(    3) amplitude =  0.1298
    D(   86) --> V(   10) amplitude =  0.1058

 Excited state   3: excitation energy (eV) =       2.8514
 Total energy for state   3:                 -1183.07247926 au
    Multiplicity: Singlet
    Trans. Mom.: -2.8446 X  -2.5595 Y   0.2890 Z
    Strength   :     1.0287246545
    D(   84) --> V(    1) amplitude =  0.2577
    D(   86) --> V(    1) amplitude =  0.9460

 Excited state   4: excitation energy (eV) =       2.8684
 Total energy for state   4:                 -1183.07185316 au
    Multiplicity: Triplet
    Trans. Mom.:  0.0000 X   0.0000 Y   0.0000 Z
    Strength   :     0.0000000000
    D(   77) --> V(    1) amplitude = -0.0779
    D(   84) --> V(    1) amplitude = -0.1901
    D(   85) --> V(    1) amplitude =  0.9167
    D(   85) --> V(    2) amplitude =  0.2377
    D(   85) --> V(    3) amplitude = -0.1458
    D(   85) --> V(   10) amplitude = -0.1295

 Excited state   5: excitation energy (eV) =       3.4024
 Total energy for state   5:                 -1183.05222746 au
    Multiplicity: Triplet
    Trans. Mom.:  0.0000 X   0.0000 Y   0.0000 Z
    Strength   :     0.0000000000
    D(   75) --> V(    1) amplitude =  0.0875
    D(   79) --> V(    1) amplitude = -0.1234
    D(   81) --> V(    1) amplitude =  0.0808
    D(   82) --> V(    1) amplitude = -0.0732
    D(   83) --> V(    1) amplitude =  0.8798
    D(   83) --> V(    3) amplitude =  0.1225
    D(   84) --> V(    1) amplitude =  0.1126
    D(   84) --> V(    2) amplitude = -0.1658
    D(   84) --> V(    3) amplitude =  0.1882
[...]
      XZZZ     510.1131   YZZZ    -647.3217   ZZZZ   -1242.1238
    5th-Order Moments (Debye-Ang^4)
       500    3320.4837    410  -11804.0547    320   -6582.1288
       230  -12854.4743    140   -8460.1954    050  -65730.2747
       401      81.6051    311    1212.1097    221    -762.8162
       131    1288.3828    041    -530.2633    302     995.0956
       212   -1879.2253    122   -2493.4283    032   -9425.6161
       203    -907.1788    113     696.0163    023   -3585.1141
       104     843.2284    014   -3511.7102    005   -1904.1990
 -----------------------------------------------------------------
 -----------------------------------------------------------------
                 RPA Excited-State Multipoles, State    4   
                  LMN = < X^L Y^M Z^N >
 -----------------------------------------------------------------
    Charge (ESU x 10^10)
                 4.8032
    Dipole Moment (Debye)
         X      -5.7710      Y      12.5412      Z       4.1447
       Tot      14.4140
    Quadrupole Moments (Debye-Ang)
        XX     -81.5663     XY      19.6301     YY     -28.5963
        XZ     -16.3683     YZ      29.6830     ZZ    -120.3263
    Octopole Moments (Debye-Ang^2)
       XXX     -78.2511    XXY    -425.3597    XYY      25.9865
       YYY    -382.3697    XXZ      10.1399    XYZ      -9.9827
       YYZ     153.6693    XZZ      44.1930    YZZ    -268.5610
       ZZZ    -135.9616
    Hexadecapole Moments (Debye-Ang^3)
      XXXX   -4532.3661   XXXY   -1149.1761   XXYY   -2462.2013
      XYYY    -913.5203   YYYY   -6192.9925   XXXZ     276.3853
      XXYZ    -111.7349   XYYZ     270.7728   YYYZ     588.5852
      XXZZ   -1003.1082   XYZZ    -564.9968   YYZZ   -1687.7412
      XZZZ     519.1769   YZZZ    -662.1557   ZZZZ   -1247.2621
    5th-Order Moments (Debye-Ang^4)
       500    3980.1430    410  -11970.2433    320   -6882.3049
       230  -13513.2999    140   -8295.5196    050  -61093.4884
       401    -157.7423    311    1198.2889    221    -782.1676
       131    1730.4577    041     625.9827    302    1116.4920
       212   -1852.8004    122   -2316.4453    032   -9229.5337
       203    -951.9063    113     740.1615    023   -3602.9677
       104     895.4863    014   -3516.1721    005   -1932.5563
 -----------------------------------------------------------------
 -----------------------------------------------------------------
                 RPA Excited-State Multipoles, State    5   
                  LMN = < X^L Y^M Z^N >
 -----------------------------------------------------------------
    Charge (ESU x 10^10)
                 4.8032
    Dipole Moment (Debye)
         X     -16.5222      Y       2.4201      Z       4.8841
       Tot      17.3982
    Quadrupole Moments (Debye-Ang)
        XX     -63.9757     XY      12.3973     YY     -66.4588
        XZ     -17.6483     YZ      26.2540     ZZ    -122.0747
    Octopole Moments (Debye-Ang^2)
       XXX    -191.5573    XXY    -462.1014    XYY     -25.0343
       YYY    -591.1648    XXZ      26.2006    XYZ      -8.4065
       YYZ     127.2918    XZZ      32.0024    YZZ    -284.2288
       ZZZ    -134.6936
    Hexadecapole Moments (Debye-Ang^3)
      XXXX   -4161.5901   XXXY   -1081.4728   XXYY   -2448.1726
      XYYY   -1054.3851   YYYY   -7298.1053   XXXZ     250.7945
      XXYZ    -110.7397   XYYZ     238.8850   YYYZ     393.6108
      XXZZ    -995.2056   XYZZ    -585.8386   YYZZ   -1753.6028
      XZZZ     515.9631   YZZZ    -670.4331   ZZZZ   -1254.7917
    5th-Order Moments (Debye-Ang^4)
       500    2021.0492    410  -12349.8525    320   -6928.7112
       230  -13505.0816    140   -9040.6994    050  -67609.5992
       401     162.7910    311    1291.4385    221    -780.8631
       131    1482.3025    041    -653.0079    302     965.0442
       212   -1923.6755    122   -2435.5696    032   -9586.9461
       203    -905.1963    113     742.1606    023   -3665.6251
       104     859.0985    014   -3566.3009    005   -1931.5151
 -----------------------------------------------------------------
 -----------------------------------------------------------------
                 RPA Excited-State Multipoles, State    6   
                  LMN = < X^L Y^M Z^N >
 -----------------------------------------------------------------
    Charge (ESU x 10^10)
                 4.8032
    Dipole Moment (Debye)
         X      -9.3427      Y       9.5091      Z       4.3864
       Tot      14.0339
    Quadrupole Moments (Debye-Ang)
        XX     -76.9657     XY      22.8771     YY     -30.0923
        XZ     -13.4605     YZ      30.1181     ZZ    -122.2145
    Octopole Moments (Debye-Ang^2)
       XXX    -130.6437    XXY    -442.1752    XYY      47.2048
       YYY    -350.1587    XXZ      22.3548    XYZ       4.8328
       YYZ     160.0188    XZZ      40.0180    YZZ    -276.6517
       ZZZ    -136.4410
    Hexadecapole Moments (Debye-Ang^3)
      XXXX   -4381.6232   XXXY   -1106.0597   XXYY   -2426.5802
      XYYY    -720.7813   YYYY   -5814.9924   XXXZ     272.8380
      XXYZ    -101.5154   XYYZ     314.0394   YYYZ     629.5544
      XXZZ   -1005.4007   XYZZ    -564.1402   YYZZ   -1703.2550
      XZZZ     529.0333   YZZZ    -663.1703   ZZZZ   -1257.8689
    5th-Order Moments (Debye-Ang^4)
       500    2881.4912    410  -12181.7978    320   -6691.9368
       230  -13087.0928    140   -6952.7865    050  -57988.1931
       401     124.4808    311    1344.0772    221    -708.2100
       131    1909.3128    041     945.3393    302    1020.7141
       212   -1911.7400    122   -2313.9997    032   -9224.9227
       203    -923.7635    113     785.1352    023   -3585.0378
       104     890.9828    014   -3548.1957    005   -1943.6854
 -----------------------------------------------------------------
 -----------------------------------------------------------------
                 RPA Excited-State Multipoles, State    7   
                  LMN = < X^L Y^M Z^N >
 -----------------------------------------------------------------
    Charge (ESU x 10^10)
                 4.8032
    Dipole Moment (Debye)
         X      -8.1933      Y       7.6019      Z       2.9404
       Tot      11.5570
    Quadrupole Moments (Debye-Ang)
        XX     -70.7658     XY      22.4165     YY     -51.0504
        XZ     -18.0841     YZ      22.7989     ZZ    -121.6520
    Octopole Moments (Debye-Ang^2)
       XXX    -105.0157    XXY    -428.0087    XYY      20.9657
       YYY    -521.0361    XXZ       9.8312    XYZ     -14.7869
       YYZ     118.1305    XZZ      42.3798    YZZ    -278.5373
       ZZZ    -140.3225
    Hexadecapole Moments (Debye-Ang^3)
      XXXX   -4288.9250   XXXY   -1037.3761   XXYY   -2421.8299
      XYYY    -973.9585   YYYY   -7087.8843   XXXZ     234.5172
      XXYZ    -150.6570   XYYZ     217.4254   YYYZ     368.5430
      XXZZ    -994.8145   XYZZ    -564.1730   YYZZ   -1735.4749
      XZZZ     517.1239   YZZZ    -682.3611   ZZZZ   -1255.7474
    5th-Order Moments (Debye-Ang^4)
       500    3243.3147    410  -11896.2516    320   -6537.9633
       230  -13353.5897    140   -8909.5244    050  -67103.5305
       401      -3.4981    311    1200.8452    221    -930.3312
       131    1382.9410    041    -753.7105    302    1062.7050
       212   -1889.1168    122   -2355.9609    032   -9510.1482
       203    -955.2321    113     736.4160    023   -3697.5624
       104     899.6256    014   -3558.3332    005   -1963.9421
 -----------------------------------------------------------------
 -----------------------------------------------------------------
                 RPA Excited-State Multipoles, State    8   
                  LMN = < X^L Y^M Z^N >
 -----------------------------------------------------------------
    Charge (ESU x 10^10)
                 4.8032
    Dipole Moment (Debye)
         X     -12.9788      Y       7.8926      Z       5.8781
       Tot      16.2878
    Quadrupole Moments (Debye-Ang)
        XX     -74.6056     XY       5.8964     YY     -53.5842
        XZ     -19.5998     YZ      30.6343     ZZ    -119.7021
    Octopole Moments (Debye-Ang^2)
       XXX    -128.8641    XXY    -418.4266    XYY     -16.6146
       YYY    -538.0235    XXZ      29.6865    XYZ     -20.9551
       YYZ     132.9350    XZZ      28.0004    YZZ    -275.7766
       ZZZ    -129.1747
    Hexadecapole Moments (Debye-Ang^3)
      XXXX   -4403.9494   XXXY   -1178.7220   XXYY   -2394.9063
      XYYY   -1041.9328   YYYY   -7137.8341   XXXZ     245.9827
      XXYZ     -79.4499   XYYZ     213.8241   YYYZ     403.3391
      XXZZ    -987.7537   XYZZ    -604.9205   YYZZ   -1734.3807
      XZZZ     504.2895   YZZZ    -653.4160   ZZZZ   -1240.4422
    5th-Order Moments (Debye-Ang^4)
       500    3302.0435    410  -11743.0289    320   -6749.6006
       230  -13122.2972    140   -8895.0650    050  -67218.6495
       401     149.8283    311    1176.1682    221    -766.2726
       131    1339.1723    041    -748.0175    302     960.1391
       212   -1866.8543    122   -2474.3182    032   -9530.9363
       203    -878.8429    113     699.3223    023   -3629.1734
       104     828.3118    014   -3525.4611    005   -1893.0028
 -----------------------------------------------------------------
 -----------------------------------------------------------------
                 RPA Excited-State Multipoles, State    9   
                  LMN = < X^L Y^M Z^N >
 -----------------------------------------------------------------
    Charge (ESU x 10^10)
                 4.8032
    Dipole Moment (Debye)
         X     -16.8926      Y       5.2009      Z       6.7642
       Tot      18.9252
    Quadrupole Moments (Debye-Ang)
        XX     -73.4434     XY      -5.4568     YY     -65.8326
        XZ     -21.5835     YZ      34.2571     ZZ    -117.4344
    Octopole Moments (Debye-Ang^2)
       XXX    -150.0980    XXY    -428.3365    XYY     -72.8902
       YYY    -615.6214    XXZ      32.3891    XYZ     -31.5149
       YYZ     142.0837    XZZ      20.7539    YZZ    -270.5087
       ZZZ    -123.6059
    Hexadecapole Moments (Debye-Ang^3)
      XXXX   -4460.9423   XXXY   -1268.2145   XXYY   -2448.3757
      XYYY   -1284.8132   YYYY   -7548.9911   XXXZ     264.2597
      XXYZ     -50.0886   XYYZ     184.5564   YYYZ     439.1343
      XXZZ    -984.2080   XYZZ    -629.2015   YYZZ   -1715.4123
      XZZZ     494.8300   YZZZ    -632.7372   ZZZZ   -1226.5346
    5th-Order Moments (Debye-Ang^4)
       500    3356.1538    410  -11926.5960    320   -7238.7714
       230  -13584.3535    140  -10216.8739    050  -69690.4256
       401      30.6202    311    1132.6267    221    -682.7624
       131    1211.7099    041    -663.2197    302     971.9617
       212   -1842.5257    122   -2578.1037    032   -9490.1817
       203    -873.1495    113     651.0410    023   -3563.2129
       104     797.9875    014   -3481.9050    005   -1856.9062
 -----------------------------------------------------------------
 -----------------------------------------------------------------
                 RPA Excited-State Multipoles, State   10   
                  LMN = < X^L Y^M Z^N >
 -----------------------------------------------------------------
    Charge (ESU x 10^10)
                 4.8032
    Dipole Moment (Debye)
         X     -15.1540      Y       5.1959      Z       5.6652
       Tot      16.9922
    Quadrupole Moments (Debye-Ang)
        XX     -70.3303     XY       3.4153     YY     -64.9676
        XZ     -20.7587     YZ      29.2543     ZZ    -119.5466
    Octopole Moments (Debye-Ang^2)
       XXX    -170.3426    XXY    -433.0984    XYY     -34.0048
       YYY    -595.6981    XXZ      40.2204    XYZ     -18.7584
       YYZ     127.4787    XZZ      23.4974    YZZ    -279.5893
       ZZZ    -129.2980
    Hexadecapole Moments (Debye-Ang^3)
      XXXX   -4260.5952   XXXY   -1218.0335   XXYY   -2470.4472
      XYYY   -1150.1587   YYYY   -7462.2698   XXXZ     191.7303
      XXYZ     -81.1142   XYYZ     220.3846   YYYZ     373.8637
      XXZZ    -968.6345   XYZZ    -604.3746   YYZZ   -1752.7980
      XZZZ     498.0610   YZZZ    -661.0747   ZZZZ   -1241.0817
    5th-Order Moments (Debye-Ang^4)
       500    2359.6162    410  -11836.7236    320   -6918.4180
       230  -13481.7516    140   -9481.1231    050  -69039.0349
       401     453.4877    311    1189.3931    221    -768.4223
       131    1369.1156    041    -916.3058    302     847.9894
       212   -1879.0567    122   -2471.4646    032   -9624.4768
       203    -835.7013    113     710.1938    023   -3663.8276
       104     811.2585    014   -3546.6116    005   -1894.0466
 -----------------------------------------------------------------
 -----------------------------------------------------------------
                 RPA Excited-State Multipoles, State   11   
                  LMN = < X^L Y^M Z^N >
 -----------------------------------------------------------------
    Charge (ESU x 10^10)
                 4.8032
    Dipole Moment (Debye)
         X     -13.2363      Y       5.3597      Z       4.5403
       Tot      14.9847
    Quadrupole Moments (Debye-Ang)
        XX     -65.4494     XY      19.4943     YY     -48.9050
        XZ     -17.1321     YZ      27.9676     ZZ    -121.3702
    Octopole Moments (Debye-Ang^2)
       XXX    -152.8331    XXY    -440.9359    XYY      10.1506
       YYY    -491.7861    XXZ      19.5815    XYZ     -11.4233
       YYZ     135.7665    XZZ      35.3113    YZZ    -279.1451
       ZZZ    -135.4616
    Hexadecapole Moments (Debye-Ang^3)
      XXXX   -4216.4162   XXXY   -1028.1113   XXYY   -2354.1726
      XYYY    -861.6662   YYYY   -6679.7248   XXXZ     258.3860
      XXYZ    -111.6299   XYYZ     242.8753   YYYZ     468.9873
      XXZZ    -995.2076   XYZZ    -577.7425   YYZZ   -1722.1635
      XZZZ     518.0746   YZZZ    -663.5183   ZZZZ   -1252.0176
    5th-Order Moments (Debye-Ang^4)
       500    2661.8929    410  -12098.3236    320   -6602.6076
       230  -12981.0389    140   -7950.4010    050  -63760.0903
       401      59.6030    311    1255.2149    221    -798.4851
       131    1503.9922    041    -161.7074    302    1012.5533
       212   -1902.7049    122   -2405.7837    032   -9409.1475
       203    -928.5044    113     734.1524    023   -3623.0894
       104     873.2996    014   -3542.4487    005   -1935.4207
 -----------------------------------------------------------------
 -----------------------------------------------------------------
                 RPA Excited-State Multipoles, State   12   
                  LMN = < X^L Y^M Z^N >
 -----------------------------------------------------------------
    Charge (ESU x 10^10)
                 4.8032
    Dipole Moment (Debye)
         X     -11.9243      Y       9.1674      Z       5.9709
       Tot      16.1828
    Quadrupole Moments (Debye-Ang)
        XX     -73.6922     XY       7.7714     YY     -47.6750
        XZ     -20.7077     YZ      31.3970     ZZ    -119.1147
    Octopole Moments (Debye-Ang^2)
       XXX    -119.6965    XXY    -404.4084    XYY      -0.9876
       YYY    -501.9838    XXZ      32.6128    XYZ     -23.9595
       YYZ     135.7837    XZZ      26.9550    YZZ    -273.2843
       ZZZ    -128.4347
    Hexadecapole Moments (Debye-Ang^3)
      XXXX   -4388.2652   XXXY   -1168.9613   XXYY   -2351.2496
      XYYY    -964.9383   YYYY   -6931.2160   XXXZ     224.3336
      XXYZ     -76.1778   XYYZ     207.9264   YYYZ     424.5377
      XXZZ    -979.4265   XYZZ    -606.7441   YYZZ   -1723.5785
      XZZZ     499.7381   YZZZ    -650.4966   ZZZZ   -1239.0532
    5th-Order Moments (Debye-Ang^4)
       500    3372.5555    410  -11563.1265    320   -6578.9068
       230  -12842.6391    140   -8412.0697    050  -65928.4138
       401     229.2272    311    1151.0223    221    -763.5371
       131    1318.4173    041    -620.0173    302     938.0665
       212   -1848.7421    122   -2474.7355    032   -9472.8605
       203    -865.7657    113     689.9941    023   -3614.5922
       104     824.3549    014   -3518.0412    005   -1893.8069
 -----------------------------------------------------------------
 -----------------------------------------------------------------
                 RPA Excited-State Multipoles, State   13   
                  LMN = < X^L Y^M Z^N >
 -----------------------------------------------------------------
    Charge (ESU x 10^10)
                 4.8032
    Dipole Moment (Debye)
         X     -12.1308      Y       8.7083      Z       5.8126
       Tot      16.0243
    Quadrupole Moments (Debye-Ang)
        XX     -76.3246     XY       7.4095     YY     -46.6557
        XZ     -19.0498     YZ      32.6370     ZZ    -119.1726
    Octopole Moments (Debye-Ang^2)
       XXX    -108.6211    XXY    -410.7647    XYY      -8.9890
       YYY    -491.7305    XXZ      24.9000    XYZ     -24.4152
       YYZ     144.7433    XZZ      28.6812    YZZ    -270.0168
       ZZZ    -127.5315
    Hexadecapole Moments (Debye-Ang^3)
      XXXX   -4471.6678   XXXY   -1155.9207   XXYY   -2342.4771
      XYYY    -981.2796   YYYY   -6828.2063   XXXZ     268.8354
      XXYZ     -71.2534   XYYZ     201.8500   YYYZ     473.1114
      XXZZ    -992.8186   XYZZ    -612.8097   YYZZ   -1705.0397
      XZZZ     503.2207   YZZZ    -639.5725   ZZZZ   -1236.3130
    5th-Order Moments (Debye-Ang^4)
       500    3766.7737    410  -11713.2561    320   -6678.2072
       230  -12841.6282    140   -8461.1943    050  -65149.8512
       401       7.7853    311    1159.6229    221    -716.8105
       131    1310.2606    041    -331.3699    302    1013.4228
       212   -1837.2445    122   -2504.3585    032   -9377.8814
       203    -893.1014    113     673.7621    023   -3561.1773
       104     829.7500    014   -3488.0966    005   -1880.7469
 -----------------------------------------------------------------
 -----------------------------------------------------------------
                 RPA Excited-State Multipoles, State   14   
                  LMN = < X^L Y^M Z^N >
 -----------------------------------------------------------------
    Charge (ESU x 10^10)
                 4.8032
    Dipole Moment (Debye)
         X     -17.7663      Y       3.2627      Z       6.1827
       Tot      19.0922
    Quadrupole Moments (Debye-Ang)
        XX     -67.9488     XY      -0.1515     YY     -65.3966
        XZ     -21.0344     YZ      34.0104     ZZ    -117.5394
    Octopole Moments (Debye-Ang^2)
       XXX    -176.8839    XXY    -441.4279    XYY     -70.0004
       YYY    -612.7052    XXZ      34.9255    XYZ     -30.3249
       YYZ     142.7821    XZZ      19.3350    YZZ    -271.5683
       ZZZ    -124.7171
    Hexadecapole Moments (Debye-Ang^3)
      XXXX   -4323.7473   XXXY   -1220.5285   XXYY   -2440.9247
      XYYY   -1252.9195   YYYY   -7477.2250   XXXZ     238.6810
      XXYZ     -52.7156   XYYZ     188.1858   YYYZ     458.5472
      XXZZ    -973.0760   XYZZ    -625.8504   YYZZ   -1708.8206
      XZZZ     494.7616   YZZZ    -631.2388   ZZZZ   -1228.2479
    5th-Order Moments (Debye-Ang^4)
       500    2714.0007    410  -12047.3087    320   -7203.2142
       230  -13564.3674    140  -10102.6677    050  -69202.0807
       401     188.2542    311    1141.7454    221    -686.3302
       131    1203.2346    041    -555.9832    302     910.1646
       212   -1849.7262    122   -2586.6480    032   -9453.6603
       203    -859.3265    113     649.6887    023   -3547.9820
       104     796.6852    014   -3480.2399    005   -1865.1165
 -----------------------------------------------------------------
 Total job time:  5535.43s(wall), 75358.87s(cpu) 
 Fri Jan 31 02:37:32 2025

        *************************************************************
        *                                                           *
        *  Thank you very much for using Q-Chem.  Have a nice day.  *
        *                                                           *
        *************************************************************


