
Running Job 1 of 1 Malvidin_Q1_tddft_full.in
qchem Malvidin_Q1_tddft_full.in_2624436.0 /data/brussel/103/vsc10365/activedata/TDDFTAnthocyanidines/qchem2624436/ 1
/apps/brussel/RL8/skylake/software/Q-Chem/6.2.0/exe/qcprog.exe_s Malvidin_Q1_tddft_full.in_2624436.0 /data/brussel/103/vsc10365/activedata/TDDFTAnthocyanidines/qchem2624436/
                  Welcome to Q-Chem
     A Quantum Leap Into The Future Of Chemistry


 Q-Chem 6.2, Q-Chem, Inc., Pleasanton, CA (2024)

 License issued to: SRG Prof. Dr. Frank De Proft, Vrije Universiteit Brussel

 E. Epifanovsky,  A. T. B. Gilbert,  Xintian Feng,  Joonho Lee,  Yuezhi Mao,  
 N. Mardirossian,  P. Pokhilko,  A. White,  M. Wormit,  M. P. Coons,  
 A. L. Dempwolff,  Zhengting Gan,  D. Hait,  P. R. Horn,  L. D. Jacobson,  
 I. Kaliman,  J. Kussmann,  A. W. Lange,  Ka Un Lao,  D. S. Levine,  Jie Liu,  
 S. C. McKenzie,  A. F. Morrison,  K. D. Nanda,  F. Plasser,  D. R. Rehn,  
 M. L. Vidal,  Zhi-Qiang You,  Ying Zhu,  Huseyin Aksu,  B. Alam,  
 B. Albrecht,  A. Aldossary,  E. Alguire,  J. H. Andersen,  
 J. E. Arias-Martinez,  V. Athavale,  D. Barton,  K. Begam,  A. Behn,  
 N. Bellonzi,  Y. A. Bernard,  E. J. Berquist,  H. Burton,  A. Carreras,  
 K. Carter-Fenk,  Mathew Chow,  Romit Chakraborty,  Chandrima Chakravarty,  
 Junhan Chen,  A. D. Chien,  K. D. Closser,  V. Cofer-Shabica,  L. Cunha,  
 S. Dasgupta,  Jia Deng,  Joseph Dickinson,  M. de Wergifosse,  
 M. Diedenhofen,  Hainam Do,  Wenjie Dou,  S. Ehlert,  Po-Tung Fang,  
 S. Fatehi,  Qingguo Feng,  Jonathan Fetherolf,  T. Friedhoff,  
 Thomas Froitzheim,  Sarai Folkestad,  B. Ganoe,  J. Gayvert,  Qinghui Ge,  
 G. Gidofalvi,  M. Gimferrer,  M. Goldey,  Montgomery Gray,  J. Gomes,  
 C. Gonzalez-Espinoza,  S. Gulania,  A. Gunina,  J. A. Gyamfi,  
 M. W. D. Hanson-Heine,  P. H. P. Harbach,  A. W. Hauser,  M. F. Herbst,  
 M. Hernandez Vera,  M. Hodecker,  Z. C. Holden,  S. Houck,  Xunkun Huang,  
 Kerwin Hui,  B. C. Huynh,  K. Ikeda,  M. Ivanov,  Nayanthara K. Jayadev,  
 Hyunjun Ji,  Zuxin Jin,  Hanjie Jiang,  Subrata Jana,  B. Kaduk,  
 S. Kaehler,  R. Kang,  K. Khistyaev,  Jaehoon Kim,  Yongbin Kim,  
 P. Klunzinger,  Z. Koczor-Benda,  Joong Hoon Koh,  D. Kosenkov,  
 Saikiran Kotaru,  L. Koulias,  T. Kowalczyk,  C. M. Krauter,  K. Kue,  
 A. Kunitsa,  T. Kus,  A. Landau,  K. V. Lawler,  D. Lefrancois,  S. Lehtola,  
 Rain Li,  Shaozhi Li,  Tao E. Li,  Yi-Pei Li,  Jiashu Liang,  M. Liebenthal,  
 Hung-Hsuan Lin,  You-Sheng Lin,  Fenglai Liu,  Kuan-Yu Liu,  Xiao Liu,  
 M. Loipersberger,  A. Luenser,  C. Malbon,  Aniket Mandal,  Manisha,  
 A. Manjanath,  P. Manohar,  E. Mansoor,  S. F. Manzer,  Shan-Ping Mao,  
 A. V. Marenich,  T. Markovich,  S. Mason,  F. Matz,  S. A. Maurer,  
 Samuel May,  Alexandra McIsaac,  P. F. McLaughlin,  M. F. S. J. Menger,  
 J.-M. Mewes,  S. A. Mewes,  P. Morgante,  Mohammad Mostafanejad,  
 Madhubani Mukherjee,  J. W. Mullinax,  Quyen Nguyen,  Avik Kumar Ojha,  
 K. J. Oosterbaan,  Eno Paenurk,  Xiaoliang Pan,  G. Paran,  V. Parravicini,  
 Alexander C. Paul,  Suranjan K. Paul,  F. Pavosevic,  Zheng Pei,  S. Prager,  
 E. I. Proynov,  E. Ramos,  B. Rana,  A. E. Rask,  A. Rettig,  R. M. Richard,  
 F. Rob,  E. Rossomme,  T. Scheele,  M. Scheurer,  M. Schneider,  
 P. E. Schneider,  Tim K. Schramm,  N. Sergueev,  S. M. Sharada,  
 Hengyuan Shen,  W. Skomorowski,  D. W. Small,  C. J. Stein,  
 Alistair J. Sterling,  Yingli Su,  Yu-Chuan Su,  E. J. Sundstrom,  
 J. Talbot,  Zhen Tao,  J. Thirman,  Hung-Yi Tsai,  T. Tsuchimochi,  
 N. M. Tubman,  C. Utku,  S. P. Veccham,  O. Vydrov,  Rahel Weiss,  
 J. Wenzel,  Jonathan Wong,  J. Witte,  H. Wu,  Yanze Wu,  A. Yamada,  
 Chou-Hsun Yang,  Kun Yao,  S. Yeganeh,  S. R. Yost,  Qi Yu,  A. Zech,  
 F. Zeller,  Chongxiao Zhao,  Igor Ying Zhang,  Xing Zhang,  Yu Zhang,  
 D. Zuev,  A. Aspuru-Guzik,  A. T. Bell,  N. A. Besley,  K. B. Bravaya,  
 B. R. Brooks,  D. Casanova,  Jeng-Da Chai,  Hsing-Ta Chen,  S. Coriani,  
 C. J. Cramer,  A. E. DePrince, III,  R. A. DiStasio Jr.,  A. Dreuw,  
 B. D. Dunietz,  T. R. Furlani,  W. A. Goddard III,  S. Grimme,  
 S. Hammes-Schiffer,  T. Head-Gordon,  W. J. Hehre,  Chao-Ping Hsu,  
 T.-C. Jagau,  Yousung Jung,  A. Klamt,  Jing Kong,  D. S. Lambrecht,  
 Xiangyuan Li,  WanZhen Liang,  N. J. Mayhall,  C. W. McCurdy,  J. B. Neaton,  
 T. Neudecker,  C. Ochsenfeld,  J. A. Parkhill,  R. Peverati,  
 V. A. Rassolov,  Haisheng Ren,  Yihan Shao,  L. V. Slipchenko,  
 R. P. Steele,  J. E. Subotnik,  A. J. W. Thom,  A. Tkatchenko,  
 D. G. Truhlar,  T. Van Voorhis,  Fan Wang,  T. A. Wesolowski,  K. B. Whaley,  
 H. L. Woodcock III,  P. M. Zimmerman,  S. Faraji,  P. M. W. Gill,  
 M. Head-Gordon,  J. M. Herbert,  A. I. Krylov

 Contributors to earlier versions of Q-Chem not listed above: 
 R. D. Adamson,  B. Austin,  R. Baer,  J. Baker,  G. J. O. Beran,  
 K. Brandhorst,  S. T. Brown,  E. F. C. Byrd,  Arup K. Chakraborty,  
 G. K. L. Chan,  Chun-Min Chang,  Yunqing Chen,  C.-L. Cheng,  
 Siu Hung Chien,  D. M. Chipman,  D. L. Crittenden,  H. Dachsel,  
 R. J. Doerksen,  A. D. Dutoi,  R. G. Edgar,  J. Fosso-Tande,  
 L. Fusti-Molnar,  D. Ghosh,  A. Ghysels,  A. Golubeva-Zadorozhnaya,  
 J. Gonthier,  M. S. Gordon,  S. R. Gwaltney,  G. Hawkins,  J. E. Herr,  
 A. Heyden,  S. Hirata,  E. G. Hohenstein,  G. Kedziora,  F. J. Keil,  
 C. Kelley,  Jihan Kim,  R. A. King,  R. Z. Khaliullin,  P. P. Korambath,  
 W. Kurlancheek,  A. Laurent,  A. M. Lee,  M. S. Lee,  S. V. Levchenko,  
 Ching Yeh Lin,  D. Liotard,  E. Livshits,  R. C. Lochan,  I. Lotan,  
 L. A. Martinez-Martinez,  P. E. Maslen,  N. Nair,  D. P. O'Neill,  
 D. Neuhauser,  E. Neuscamman,  C. M. Oana,  R. Olivares-Amaya,  R. Olson,  
 T. M. Perrine,  B. Peters,  P. A. Pieniazek,  A. Prociuk,  Y. M. Rhee,  
 J. Ritchie,  M. A. Rohrdanz,  E. Rosta,  N. J. Russ,  H. F. Schaefer III,  
 M. W. Schmidt,  N. E. Schultz,  S. Sharma,  N. Shenvi,  C. D. Sherrill,  
 A. C. Simmonett,  A. Sodt,  T. Stein,  D. Stuck,  K. S. Thanthiriwatte,  
 V. Vanovschi,  L. Vogt,  Tao Wang,  A. Warshel,  M. A. Watson,  
 C. F. Williams,  Q. Wu,  X. Xu,  Jun Yang,  W. Zhang,  Yan Zhao

   Please cite Q-Chem as follows:
  "Software for the frontiers of quantum chemistry:
   An overview of developments in the Q-Chem 5 package"
   J. Chem. Phys. 155, 084801 (2021)
   https://doi.org/10.1063/5.0055522 (open access)

 Q-Chem 6.2.0 for Intel X86 EM64T Linux

 Parts of Q-Chem use Armadillo 9.900.5 (Nocturnal Misbehaviour).
 http://arma.sourceforge.net/

 Q-Chem begins on Fri Jan 31 01:07:44 2025  

 Host: 
0

     Scratch files written to /data/brussel/103/vsc10365/activedata/TDDFTAnthocyanidines/qchem2624436//
 May224 |scratch|qcdevops|jenkins|workspace|build_RNUM -1
 Processing $rem in /apps/brussel/RL8/skylake/software/Q-Chem/6.2.0/config/preferences:
 Processing $rem in /user/brussel/103/vsc10365/.qchemrc:
 Symmetry turned off for PCM/SM12/SMD calculation

 Checking the input file for inconsistencies... 	...done.

--------------------------------------------------------------
User input:
--------------------------------------------------------------
$comment
TDDFT calculation of malvidin Q1 structure
nprocs=16
mem=64gb
$end

$molecule
0 1
C   -2.7432967   -1.5122524   -0.4069706
C   -3.8855745   -1.2918800    0.3730943
C   -4.0178771   -0.1103225    1.0760847
C   -3.0118832    0.8803353    1.0148479
C   -1.8898693    0.6051135    0.2221021
C   -1.7280286   -0.5684439   -0.4926896
C   -3.0507539    2.1244811    1.6893733
C   -2.0348452    3.0290457    1.5724992
C   -0.8929551    2.7367146    0.7606454
O   -0.8965296    1.5298286    0.1359085
C    0.2566915    3.5109034    0.5051700
C    0.4427413    4.8235842    1.0320315
C    1.5742671    5.5368558    0.7520658
C    2.6378131    5.0122850   -0.0763962
C    2.4176436    3.6774603   -0.5997808
C    1.2857720    2.9674269   -0.3231992
O   -2.5849371   -2.6683077   -1.1132876
H   -4.6623926   -2.0460586    0.4245084
O   -5.1034644    0.1621705    1.8517062
H   -0.8472272   -0.7409577   -1.0942127
H   -3.9003766    2.3711317    2.3135472
O   -2.0683110    4.2270794    2.2225225
H   -0.3194929    5.2572118    1.6518819
O    1.8248879    6.8025736    1.2127311
O    3.6844035    5.6676958   -0.3285930
H    1.1590510    1.9781171   -0.7308840
H   -3.3525272   -3.2443492   -0.9858692
H   -5.7229192   -0.5814454    1.8293495
H   -2.8858040    4.2899421    2.7381049
C    0.8295402    7.4315032    2.0193745
H    1.2253593    8.4130547    2.2698780
H    0.6492611    6.8668485    2.9371273
H   -0.1074378    7.5462408    1.4690604
O    3.4452592    3.2271816   -1.3800071
C    3.3353375    1.9214473   -1.9472225
H    4.2452760    1.7686696   -2.5226753
H    2.4686720    1.8518231   -2.6088103
H    3.2636370    1.1591621   -1.1678767
$end

$rem
BASIS  =  def2-ma-TZVP
MEM_STATIC  =  2000
MEM_TOTAL  =  64000
METHOD  =  CAM-B3LYP
SOLVENT_METHOD = pcm
SYMMETRY_IGNORE  =  1
CIS_N_ROOTS = 7
CIS_SINGLETS = true
CIS_TRIPLETS = true
CISTR_PRINT = true
RPA = true
PRINT_ORBITALS = true
SCF_PRINT = 1
SCF_FINAL_PRINT = 2
PRINT_GENERAL_BASIS = true
CISTR_PRINT = true
PRINT_RADII_GYRE = true
MULTIPOLE_ORDER = 5
CIS_AMPL_PRINT = 5
CIS_AMPL_ANAL = true
STATE_ANALYSIS = true
$end

$pcm
Theory   CPCM
Method   SWIG
Solver   Inversion
Radii    Bondi
$end

$solvent
Dielectric         78.39
OpticalDielectric  1.777849
$end


--------------------------------------------------------------
 ----------------------------------------------------------------
             Standard Nuclear Orientation (Angstroms)
    I     Atom           X                Y                Z
 ----------------------------------------------------------------
    1      C      -2.7432967000    -1.5122524000    -0.4069706000
    2      C      -3.8855745000    -1.2918800000     0.3730943000
    3      C      -4.0178771000    -0.1103225000     1.0760847000
    4      C      -3.0118832000     0.8803353000     1.0148479000
    5      C      -1.8898693000     0.6051135000     0.2221021000
    6      C      -1.7280286000    -0.5684439000    -0.4926896000
    7      C      -3.0507539000     2.1244811000     1.6893733000
    8      C      -2.0348452000     3.0290457000     1.5724992000
    9      C      -0.8929551000     2.7367146000     0.7606454000
   10      O      -0.8965296000     1.5298286000     0.1359085000
   11      C       0.2566915000     3.5109034000     0.5051700000
   12      C       0.4427413000     4.8235842000     1.0320315000
   13      C       1.5742671000     5.5368558000     0.7520658000
   14      C       2.6378131000     5.0122850000    -0.0763962000
   15      C       2.4176436000     3.6774603000    -0.5997808000
   16      C       1.2857720000     2.9674269000    -0.3231992000
   17      O      -2.5849371000    -2.6683077000    -1.1132876000
   18      H      -4.6623926000    -2.0460586000     0.4245084000
   19      O      -5.1034644000     0.1621705000     1.8517062000
   20      H      -0.8472272000    -0.7409577000    -1.0942127000
   21      H      -3.9003766000     2.3711317000     2.3135472000
   22      O      -2.0683110000     4.2270794000     2.2225225000
   23      H      -0.3194929000     5.2572118000     1.6518819000
   24      O       1.8248879000     6.8025736000     1.2127311000
   25      O       3.6844035000     5.6676958000    -0.3285930000
   26      H       1.1590510000     1.9781171000    -0.7308840000
   27      H      -3.3525272000    -3.2443492000    -0.9858692000
   28      H      -5.7229192000    -0.5814454000     1.8293495000
   29      H      -2.8858040000     4.2899421000     2.7381049000
   30      C       0.8295402000     7.4315032000     2.0193745000
   31      H       1.2253593000     8.4130547000     2.2698780000
   32      H       0.6492611000     6.8668485000     2.9371273000
   33      H      -0.1074378000     7.5462408000     1.4690604000
   34      O       3.4452592000     3.2271816000    -1.3800071000
   35      C       3.3353375000     1.9214473000    -1.9472225000
   36      H       4.2452760000     1.7686696000    -2.5226753000
   37      H       2.4686720000     1.8518231000    -2.6088103000
   38      H       3.2636370000     1.1591621000    -1.1678767000
 ----------------------------------------------------------------
 Nuclear Repulsion Energy =        1989.25811723 hartrees
 There are       86 alpha and       86 beta electrons
 Requested basis set is def2-ma-TZVP
 Basis set in general basis input format:
-----------------------------------------------------------------------
$basis
C    0
S    6    1.000000
   1.35753497E+04    2.22458144E-04 
   2.03523337E+03    1.72327383E-03 
   4.63225624E+02    8.92557153E-03 
   1.31200196E+02    3.57279845E-02 
   4.28530159E+01    1.10762599E-01 
   1.55841858E+01    2.42956276E-01 
S    2    1.000000
   6.20671385E+00    4.14402634E-01 
   2.57648965E+00    2.37449687E-01 
S    1    1.000000
   5.76963394E-01    1.00000000E+00 
S    1    1.000000
   2.29728314E-01    1.00000000E+00 
S    1    1.000000
   9.51644400E-02    1.00000000E+00 
S    1    1.000000
   4.84754014E-02    1.00000000E+00 
P    4    1.000000
   3.46972322E+01    5.33336578E-03 
   7.95826228E+00    3.58641091E-02 
   2.37808269E+00    1.42158733E-01 
   8.14332082E-01    3.42704718E-01 
P    1    1.000000
   2.88875473E-01    4.64458224E-01 
P    1    1.000000
   1.00568237E-01    2.49557899E-01 
D    1    1.000000
   1.09700000E+00    1.00000000E+00 
D    1    1.000000
   3.18000000E-01    1.00000000E+00 
F    1    1.000000
   7.61000000E-01    1.00000000E+00 
****
C    0
S    6    1.000000
   1.35753497E+04    2.22458144E-04 
   2.03523337E+03    1.72327383E-03 
   4.63225624E+02    8.92557153E-03 
   1.31200196E+02    3.57279845E-02 
   4.28530159E+01    1.10762599E-01 
   1.55841858E+01    2.42956276E-01 
S    2    1.000000
   6.20671385E+00    4.14402634E-01 
   2.57648965E+00    2.37449687E-01 
S    1    1.000000
   5.76963394E-01    1.00000000E+00 
S    1    1.000000
   2.29728314E-01    1.00000000E+00 
S    1    1.000000
   9.51644400E-02    1.00000000E+00 
S    1    1.000000
   4.84754014E-02    1.00000000E+00 
P    4    1.000000
   3.46972322E+01    5.33336578E-03 
   7.95826228E+00    3.58641091E-02 
   2.37808269E+00    1.42158733E-01 
   8.14332082E-01    3.42704718E-01 
P    1    1.000000
   2.88875473E-01    4.64458224E-01 
P    1    1.000000
   1.00568237E-01    2.49557899E-01 
D    1    1.000000
   1.09700000E+00    1.00000000E+00 
D    1    1.000000
   3.18000000E-01    1.00000000E+00 
F    1    1.000000
   7.61000000E-01    1.00000000E+00 
****
C    0
S    6    1.000000
   1.35753497E+04    2.22458144E-04 
   2.03523337E+03    1.72327383E-03 
   4.63225624E+02    8.92557153E-03 
   1.31200196E+02    3.57279845E-02 
   4.28530159E+01    1.10762599E-01 
   1.55841858E+01    2.42956276E-01 
S    2    1.000000
   6.20671385E+00    4.14402634E-01 
   2.57648965E+00    2.37449687E-01 
S    1    1.000000
   5.76963394E-01    1.00000000E+00 
S    1    1.000000
   2.29728314E-01    1.00000000E+00 
S    1    1.000000
   9.51644400E-02    1.00000000E+00 
S    1    1.000000
   4.84754014E-02    1.00000000E+00 
P    4    1.000000
   3.46972322E+01    5.33336578E-03 
   7.95826228E+00    3.58641091E-02 
   2.37808269E+00    1.42158733E-01 
   8.14332082E-01    3.42704718E-01 
P    1    1.000000
   2.88875473E-01    4.64458224E-01 
P    1    1.000000
   1.00568237E-01    2.49557899E-01 
D    1    1.000000
   1.09700000E+00    1.00000000E+00 
D    1    1.000000
   3.18000000E-01    1.00000000E+00 
F    1    1.000000
   7.61000000E-01    1.00000000E+00 
****
C    0
S    6    1.000000
   1.35753497E+04    2.22458144E-04 
   2.03523337E+03    1.72327383E-03 
   4.63225624E+02    8.92557153E-03 
   1.31200196E+02    3.57279845E-02 
   4.28530159E+01    1.10762599E-01 
   1.55841858E+01    2.42956276E-01 
S    2    1.000000
   6.20671385E+00    4.14402634E-01 
   2.57648965E+00    2.37449687E-01 
S    1    1.000000
   5.76963394E-01    1.00000000E+00 
S    1    1.000000
   2.29728314E-01    1.00000000E+00 
S    1    1.000000
   9.51644400E-02    1.00000000E+00 
S    1    1.000000
   4.84754014E-02    1.00000000E+00 
P    4    1.000000
   3.46972322E+01    5.33336578E-03 
   7.95826228E+00    3.58641091E-02 
   2.37808269E+00    1.42158733E-01 
   8.14332082E-01    3.42704718E-01 
P    1    1.000000
   2.88875473E-01    4.64458224E-01 
P    1    1.000000
   1.00568237E-01    2.49557899E-01 
D    1    1.000000
   1.09700000E+00    1.00000000E+00 
D    1    1.000000
   3.18000000E-01    1.00000000E+00 
F    1    1.000000
   7.61000000E-01    1.00000000E+00 
****
C    0
S    6    1.000000
   1.35753497E+04    2.22458144E-04 
   2.03523337E+03    1.72327383E-03 
   4.63225624E+02    8.92557153E-03 
   1.31200196E+02    3.57279845E-02 
   4.28530159E+01    1.10762599E-01 
   1.55841858E+01    2.42956276E-01 
S    2    1.000000
   6.20671385E+00    4.14402634E-01 
   2.57648965E+00    2.37449687E-01 
S    1    1.000000
   5.76963394E-01    1.00000000E+00 
S    1    1.000000
   2.29728314E-01    1.00000000E+00 
S    1    1.000000
   9.51644400E-02    1.00000000E+00 
S    1    1.000000
   4.84754014E-02    1.00000000E+00 
P    4    1.000000
   3.46972322E+01    5.33336578E-03 
   7.95826228E+00    3.58641091E-02 
   2.37808269E+00    1.42158733E-01 
   8.14332082E-01    3.42704718E-01 
P    1    1.000000
   2.88875473E-01    4.64458224E-01 
P    1    1.000000
   1.00568237E-01    2.49557899E-01 
D    1    1.000000
   1.09700000E+00    1.00000000E+00 
D    1    1.000000
   3.18000000E-01    1.00000000E+00 
F    1    1.000000
   7.61000000E-01    1.00000000E+00 
****
C    0
S    6    1.000000
   1.35753497E+04    2.22458144E-04 
   2.03523337E+03    1.72327383E-03 
   4.63225624E+02    8.92557153E-03 
   1.31200196E+02    3.57279845E-02 
   4.28530159E+01    1.10762599E-01 
   1.55841858E+01    2.42956276E-01 
S    2    1.000000
   6.20671385E+00    4.14402634E-01 
   2.57648965E+00    2.37449687E-01 
S    1    1.000000
   5.76963394E-01    1.00000000E+00 
S    1    1.000000
   2.29728314E-01    1.00000000E+00 
S    1    1.000000
   9.51644400E-02    1.00000000E+00 
S    1    1.000000
   4.84754014E-02    1.00000000E+00 
P    4    1.000000
   3.46972322E+01    5.33336578E-03 
   7.95826228E+00    3.58641091E-02 
   2.37808269E+00    1.42158733E-01 
   8.14332082E-01    3.42704718E-01 
P    1    1.000000
   2.88875473E-01    4.64458224E-01 
P    1    1.000000
   1.00568237E-01    2.49557899E-01 
D    1    1.000000
   1.09700000E+00    1.00000000E+00 
D    1    1.000000
   3.18000000E-01    1.00000000E+00 
F    1    1.000000
   7.61000000E-01    1.00000000E+00 
****
C    0
S    6    1.000000
   1.35753497E+04    2.22458144E-04 
   2.03523337E+03    1.72327383E-03 
   4.63225624E+02    8.92557153E-03 
   1.31200196E+02    3.57279845E-02 
   4.28530159E+01    1.10762599E-01 
   1.55841858E+01    2.42956276E-01 
S    2    1.000000
   6.20671385E+00    4.14402634E-01 
   2.57648965E+00    2.37449687E-01 
S    1    1.000000
   5.76963394E-01    1.00000000E+00 
S    1    1.000000
   2.29728314E-01    1.00000000E+00 
S    1    1.000000
   9.51644400E-02    1.00000000E+00 
S    1    1.000000
   4.84754014E-02    1.00000000E+00 
P    4    1.000000
   3.46972322E+01    5.33336578E-03 
   7.95826228E+00    3.58641091E-02 
   2.37808269E+00    1.42158733E-01 
   8.14332082E-01    3.42704718E-01 
P    1    1.000000
   2.88875473E-01    4.64458224E-01 
P    1    1.000000
   1.00568237E-01    2.49557899E-01 
D    1    1.000000
   1.09700000E+00    1.00000000E+00 
D    1    1.000000
   3.18000000E-01    1.00000000E+00 
F    1    1.000000
   7.61000000E-01    1.00000000E+00 
****
C    0
S    6    1.000000
   1.35753497E+04    2.22458144E-04 
   2.03523337E+03    1.72327383E-03 
   4.63225624E+02    8.92557153E-03 
   1.31200196E+02    3.57279845E-02 
   4.28530159E+01    1.10762599E-01 
   1.55841858E+01    2.42956276E-01 
S    2    1.000000
   6.20671385E+00    4.14402634E-01 
   2.57648965E+00    2.37449687E-01 
S    1    1.000000
   5.76963394E-01    1.00000000E+00 
S    1    1.000000
   2.29728314E-01    1.00000000E+00 
S    1    1.000000
   9.51644400E-02    1.00000000E+00 
S    1    1.000000
   4.84754014E-02    1.00000000E+00 
P    4    1.000000
   3.46972322E+01    5.33336578E-03 
   7.95826228E+00    3.58641091E-02 
   2.37808269E+00    1.42158733E-01 
   8.14332082E-01    3.42704718E-01 
P    1    1.000000
   2.88875473E-01    4.64458224E-01 
P    1    1.000000
   1.00568237E-01    2.49557899E-01 
D    1    1.000000
   1.09700000E+00    1.00000000E+00 
D    1    1.000000
   3.18000000E-01    1.00000000E+00 
F    1    1.000000
   7.61000000E-01    1.00000000E+00 
****
C    0
S    6    1.000000
   1.35753497E+04    2.22458144E-04 
   2.03523337E+03    1.72327383E-03 
   4.63225624E+02    8.92557153E-03 
   1.31200196E+02    3.57279845E-02 
   4.28530159E+01    1.10762599E-01 
   1.55841858E+01    2.42956276E-01 
S    2    1.000000
   6.20671385E+00    4.14402634E-01 
   2.57648965E+00    2.37449687E-01 
S    1    1.000000
   5.76963394E-01    1.00000000E+00 
S    1    1.000000
   2.29728314E-01    1.00000000E+00 
S    1    1.000000
   9.51644400E-02    1.00000000E+00 
S    1    1.000000
   4.84754014E-02    1.00000000E+00 
P    4    1.000000
   3.46972322E+01    5.33336578E-03 
   7.95826228E+00    3.58641091E-02 
   2.37808269E+00    1.42158733E-01 
   8.14332082E-01    3.42704718E-01 
P    1    1.000000
   2.88875473E-01    4.64458224E-01 
P    1    1.000000
   1.00568237E-01    2.49557899E-01 
D    1    1.000000
   1.09700000E+00    1.00000000E+00 
D    1    1.000000
   3.18000000E-01    1.00000000E+00 
F    1    1.000000
   7.61000000E-01    1.00000000E+00 
****
O    0
S    6    1.000000
   2.70323826E+04    2.17263025E-04 
   4.05238714E+03    1.68386622E-03 
   9.22327227E+02    8.73956163E-03 
   2.61240710E+02    3.52399688E-02 
   8.53546414E+01    1.11535191E-01 
   3.10350352E+01    2.55889540E-01 
S    2    1.000000
   1.22608607E+01    3.97687309E-01 
   4.99870760E+00    2.46278494E-01 
S    1    1.000000
   1.17031082E+00    1.00000000E+00 
S    1    1.000000
   4.64747410E-01    1.00000000E+00 
S    1    1.000000
   1.85045364E-01    1.00000000E+00 
S    1    1.000000
   7.02880263E-02    1.00000000E+00 
P    4    1.000000
   6.32749548E+01    6.06851034E-03 
   1.46270494E+01    4.19125758E-02 
   4.45012235E+00    1.61538411E-01 
   1.52757996E+00    3.57069513E-01 
P    1    1.000000
   5.29351179E-01    4.47942075E-01 
P    1    1.000000
   1.74784213E-01    2.44460697E-01 
P    1    1.000000
   5.11127457E-02    1.00000000E+00 
D    1    1.000000
   2.31400000E+00    1.00000000E+00 
D    1    1.000000
   6.45000000E-01    1.00000000E+00 
F    1    1.000000
   1.42800000E+00    1.00000000E+00 
****
C    0
S    6    1.000000
   1.35753497E+04    2.22458144E-04 
   2.03523337E+03    1.72327383E-03 
   4.63225624E+02    8.92557153E-03 
   1.31200196E+02    3.57279845E-02 
   4.28530159E+01    1.10762599E-01 
   1.55841858E+01    2.42956276E-01 
S    2    1.000000
   6.20671385E+00    4.14402634E-01 
   2.57648965E+00    2.37449687E-01 
S    1    1.000000
   5.76963394E-01    1.00000000E+00 
S    1    1.000000
   2.29728314E-01    1.00000000E+00 
S    1    1.000000
   9.51644400E-02    1.00000000E+00 
S    1    1.000000
   4.84754014E-02    1.00000000E+00 
P    4    1.000000
   3.46972322E+01    5.33336578E-03 
   7.95826228E+00    3.58641091E-02 
   2.37808269E+00    1.42158733E-01 
   8.14332082E-01    3.42704718E-01 
P    1    1.000000
   2.88875473E-01    4.64458224E-01 
P    1    1.000000
   1.00568237E-01    2.49557899E-01 
D    1    1.000000
   1.09700000E+00    1.00000000E+00 
D    1    1.000000
   3.18000000E-01    1.00000000E+00 
F    1    1.000000
   7.61000000E-01    1.00000000E+00 
****
C    0
S    6    1.000000
   1.35753497E+04    2.22458144E-04 
   2.03523337E+03    1.72327383E-03 
   4.63225624E+02    8.92557153E-03 
   1.31200196E+02    3.57279845E-02 
   4.28530159E+01    1.10762599E-01 
   1.55841858E+01    2.42956276E-01 
S    2    1.000000
   6.20671385E+00    4.14402634E-01 
   2.57648965E+00    2.37449687E-01 
S    1    1.000000
   5.76963394E-01    1.00000000E+00 
S    1    1.000000
   2.29728314E-01    1.00000000E+00 
S    1    1.000000
   9.51644400E-02    1.00000000E+00 
S    1    1.000000
   4.84754014E-02    1.00000000E+00 
P    4    1.000000
   3.46972322E+01    5.33336578E-03 
   7.95826228E+00    3.58641091E-02 
   2.37808269E+00    1.42158733E-01 
   8.14332082E-01    3.42704718E-01 
P    1    1.000000
   2.88875473E-01    4.64458224E-01 
P    1    1.000000
   1.00568237E-01    2.49557899E-01 
D    1    1.000000
   1.09700000E+00    1.00000000E+00 
D    1    1.000000
   3.18000000E-01    1.00000000E+00 
F    1    1.000000
   7.61000000E-01    1.00000000E+00 
****
C    0
S    6    1.000000
   1.35753497E+04    2.22458144E-04 
   2.03523337E+03    1.72327383E-03 
   4.63225624E+02    8.92557153E-03 
   1.31200196E+02    3.57279845E-02 
   4.28530159E+01    1.10762599E-01 
   1.55841858E+01    2.42956276E-01 
S    2    1.000000
   6.20671385E+00    4.14402634E-01 
   2.57648965E+00    2.37449687E-01 
S    1    1.000000
   5.76963394E-01    1.00000000E+00 
S    1    1.000000
   2.29728314E-01    1.00000000E+00 
S    1    1.000000
   9.51644400E-02    1.00000000E+00 
S    1    1.000000
   4.84754014E-02    1.00000000E+00 
P    4    1.000000
   3.46972322E+01    5.33336578E-03 
   7.95826228E+00    3.58641091E-02 
   2.37808269E+00    1.42158733E-01 
   8.14332082E-01    3.42704718E-01 
P    1    1.000000
   2.88875473E-01    4.64458224E-01 
P    1    1.000000
   1.00568237E-01    2.49557899E-01 
D    1    1.000000
   1.09700000E+00    1.00000000E+00 
D    1    1.000000
   3.18000000E-01    1.00000000E+00 
F    1    1.000000
   7.61000000E-01    1.00000000E+00 
****
C    0
S    6    1.000000
   1.35753497E+04    2.22458144E-04 
   2.03523337E+03    1.72327383E-03 
   4.63225624E+02    8.92557153E-03 
   1.31200196E+02    3.57279845E-02 
   4.28530159E+01    1.10762599E-01 
   1.55841858E+01    2.42956276E-01 
S    2    1.000000
   6.20671385E+00    4.14402634E-01 
   2.57648965E+00    2.37449687E-01 
S    1    1.000000
   5.76963394E-01    1.00000000E+00 
S    1    1.000000
   2.29728314E-01    1.00000000E+00 
S    1    1.000000
   9.51644400E-02    1.00000000E+00 
S    1    1.000000
   4.84754014E-02    1.00000000E+00 
P    4    1.000000
   3.46972322E+01    5.33336578E-03 
   7.95826228E+00    3.58641091E-02 
   2.37808269E+00    1.42158733E-01 
   8.14332082E-01    3.42704718E-01 
P    1    1.000000
   2.88875473E-01    4.64458224E-01 
P    1    1.000000
   1.00568237E-01    2.49557899E-01 
D    1    1.000000
   1.09700000E+00    1.00000000E+00 
D    1    1.000000
   3.18000000E-01    1.00000000E+00 
F    1    1.000000
   7.61000000E-01    1.00000000E+00 
****
C    0
S    6    1.000000
   1.35753497E+04    2.22458144E-04 
   2.03523337E+03    1.72327383E-03 
   4.63225624E+02    8.92557153E-03 
   1.31200196E+02    3.57279845E-02 
   4.28530159E+01    1.10762599E-01 
   1.55841858E+01    2.42956276E-01 
S    2    1.000000
   6.20671385E+00    4.14402634E-01 
   2.57648965E+00    2.37449687E-01 
S    1    1.000000
   5.76963394E-01    1.00000000E+00 
S    1    1.000000
   2.29728314E-01    1.00000000E+00 
S    1    1.000000
   9.51644400E-02    1.00000000E+00 
S    1    1.000000
   4.84754014E-02    1.00000000E+00 
P    4    1.000000
   3.46972322E+01    5.33336578E-03 
   7.95826228E+00    3.58641091E-02 
   2.37808269E+00    1.42158733E-01 
   8.14332082E-01    3.42704718E-01 
P    1    1.000000
   2.88875473E-01    4.64458224E-01 
P    1    1.000000
   1.00568237E-01    2.49557899E-01 
D    1    1.000000
   1.09700000E+00    1.00000000E+00 
D    1    1.000000
   3.18000000E-01    1.00000000E+00 
F    1    1.000000
   7.61000000E-01    1.00000000E+00 
****
C    0
S    6    1.000000
   1.35753497E+04    2.22458144E-04 
   2.03523337E+03    1.72327383E-03 
   4.63225624E+02    8.92557153E-03 
   1.31200196E+02    3.57279845E-02 
   4.28530159E+01    1.10762599E-01 
   1.55841858E+01    2.42956276E-01 
S    2    1.000000
   6.20671385E+00    4.14402634E-01 
   2.57648965E+00    2.37449687E-01 
S    1    1.000000
   5.76963394E-01    1.00000000E+00 
S    1    1.000000
   2.29728314E-01    1.00000000E+00 
S    1    1.000000
   9.51644400E-02    1.00000000E+00 
S    1    1.000000
   4.84754014E-02    1.00000000E+00 
P    4    1.000000
   3.46972322E+01    5.33336578E-03 
   7.95826228E+00    3.58641091E-02 
   2.37808269E+00    1.42158733E-01 
   8.14332082E-01    3.42704718E-01 
P    1    1.000000
   2.88875473E-01    4.64458224E-01 
P    1    1.000000
   1.00568237E-01    2.49557899E-01 
D    1    1.000000
   1.09700000E+00    1.00000000E+00 
D    1    1.000000
   3.18000000E-01    1.00000000E+00 
F    1    1.000000
   7.61000000E-01    1.00000000E+00 
****
O    0
S    6    1.000000
   2.70323826E+04    2.17263025E-04 
   4.05238714E+03    1.68386622E-03 
   9.22327227E+02    8.73956163E-03 
   2.61240710E+02    3.52399688E-02 
   8.53546414E+01    1.11535191E-01 
   3.10350352E+01    2.55889540E-01 
S    2    1.000000
   1.22608607E+01    3.97687309E-01 
   4.99870760E+00    2.46278494E-01 
S    1    1.000000
   1.17031082E+00    1.00000000E+00 
S    1    1.000000
   4.64747410E-01    1.00000000E+00 
S    1    1.000000
   1.85045364E-01    1.00000000E+00 
S    1    1.000000
   7.02880263E-02    1.00000000E+00 
P    4    1.000000
   6.32749548E+01    6.06851034E-03 
   1.46270494E+01    4.19125758E-02 
   4.45012235E+00    1.61538411E-01 
   1.52757996E+00    3.57069513E-01 
P    1    1.000000
   5.29351179E-01    4.47942075E-01 
P    1    1.000000
   1.74784213E-01    2.44460697E-01 
P    1    1.000000
   5.11127457E-02    1.00000000E+00 
D    1    1.000000
   2.31400000E+00    1.00000000E+00 
D    1    1.000000
   6.45000000E-01    1.00000000E+00 
F    1    1.000000
   1.42800000E+00    1.00000000E+00 
****
H    0
S    3    1.000000
   3.40613410E+01    6.02519780E-03 
   5.12357460E+00    4.50210940E-02 
   1.16466260E+00    2.01897260E-01 
S    1    1.000000
   3.27230410E-01    1.00000000E+00 
S    1    1.000000
   1.03072410E-01    1.00000000E+00 
P    1    1.000000
   8.00000000E-01    1.00000000E+00 
****
O    0
S    6    1.000000
   2.70323826E+04    2.17263025E-04 
   4.05238714E+03    1.68386622E-03 
   9.22327227E+02    8.73956163E-03 
   2.61240710E+02    3.52399688E-02 
   8.53546414E+01    1.11535191E-01 
   3.10350352E+01    2.55889540E-01 
S    2    1.000000
   1.22608607E+01    3.97687309E-01 
   4.99870760E+00    2.46278494E-01 
S    1    1.000000
   1.17031082E+00    1.00000000E+00 
S    1    1.000000
   4.64747410E-01    1.00000000E+00 
S    1    1.000000
   1.85045364E-01    1.00000000E+00 
S    1    1.000000
   7.02880263E-02    1.00000000E+00 
P    4    1.000000
   6.32749548E+01    6.06851034E-03 
   1.46270494E+01    4.19125758E-02 
   4.45012235E+00    1.61538411E-01 
   1.52757996E+00    3.57069513E-01 
P    1    1.000000
   5.29351179E-01    4.47942075E-01 
P    1    1.000000
   1.74784213E-01    2.44460697E-01 
P    1    1.000000
   5.11127457E-02    1.00000000E+00 
D    1    1.000000
   2.31400000E+00    1.00000000E+00 
D    1    1.000000
   6.45000000E-01    1.00000000E+00 
F    1    1.000000
   1.42800000E+00    1.00000000E+00 
****
H    0
S    3    1.000000
   3.40613410E+01    6.02519780E-03 
   5.12357460E+00    4.50210940E-02 
   1.16466260E+00    2.01897260E-01 
S    1    1.000000
   3.27230410E-01    1.00000000E+00 
S    1    1.000000
   1.03072410E-01    1.00000000E+00 
P    1    1.000000
   8.00000000E-01    1.00000000E+00 
****
H    0
S    3    1.000000
   3.40613410E+01    6.02519780E-03 
   5.12357460E+00    4.50210940E-02 
   1.16466260E+00    2.01897260E-01 
S    1    1.000000
   3.27230410E-01    1.00000000E+00 
S    1    1.000000
   1.03072410E-01    1.00000000E+00 
P    1    1.000000
   8.00000000E-01    1.00000000E+00 
****
O    0
S    6    1.000000
   2.70323826E+04    2.17263025E-04 
   4.05238714E+03    1.68386622E-03 
   9.22327227E+02    8.73956163E-03 
   2.61240710E+02    3.52399688E-02 
   8.53546414E+01    1.11535191E-01 
   3.10350352E+01    2.55889540E-01 
S    2    1.000000
   1.22608607E+01    3.97687309E-01 
   4.99870760E+00    2.46278494E-01 
S    1    1.000000
   1.17031082E+00    1.00000000E+00 
S    1    1.000000
   4.64747410E-01    1.00000000E+00 
S    1    1.000000
   1.85045364E-01    1.00000000E+00 
S    1    1.000000
   7.02880263E-02    1.00000000E+00 
P    4    1.000000
   6.32749548E+01    6.06851034E-03 
   1.46270494E+01    4.19125758E-02 
   4.45012235E+00    1.61538411E-01 
   1.52757996E+00    3.57069513E-01 
P    1    1.000000
   5.29351179E-01    4.47942075E-01 
P    1    1.000000
   1.74784213E-01    2.44460697E-01 
P    1    1.000000
   5.11127457E-02    1.00000000E+00 
D    1    1.000000
   2.31400000E+00    1.00000000E+00 
D    1    1.000000
   6.45000000E-01    1.00000000E+00 
F    1    1.000000
   1.42800000E+00    1.00000000E+00 
****
H    0
S    3    1.000000
   3.40613410E+01    6.02519780E-03 
   5.12357460E+00    4.50210940E-02 
   1.16466260E+00    2.01897260E-01 
S    1    1.000000
   3.27230410E-01    1.00000000E+00 
S    1    1.000000
   1.03072410E-01    1.00000000E+00 
P    1    1.000000
   8.00000000E-01    1.00000000E+00 
****
O    0
S    6    1.000000
   2.70323826E+04    2.17263025E-04 
   4.05238714E+03    1.68386622E-03 
   9.22327227E+02    8.73956163E-03 
   2.61240710E+02    3.52399688E-02 
   8.53546414E+01    1.11535191E-01 
   3.10350352E+01    2.55889540E-01 
S    2    1.000000
   1.22608607E+01    3.97687309E-01 
   4.99870760E+00    2.46278494E-01 
S    1    1.000000
   1.17031082E+00    1.00000000E+00 
S    1    1.000000
   4.64747410E-01    1.00000000E+00 
S    1    1.000000
   1.85045364E-01    1.00000000E+00 
S    1    1.000000
   7.02880263E-02    1.00000000E+00 
P    4    1.000000
   6.32749548E+01    6.06851034E-03 
   1.46270494E+01    4.19125758E-02 
   4.45012235E+00    1.61538411E-01 
   1.52757996E+00    3.57069513E-01 
P    1    1.000000
   5.29351179E-01    4.47942075E-01 
P    1    1.000000
   1.74784213E-01    2.44460697E-01 
P    1    1.000000
   5.11127457E-02    1.00000000E+00 
D    1    1.000000
   2.31400000E+00    1.00000000E+00 
D    1    1.000000
   6.45000000E-01    1.00000000E+00 
F    1    1.000000
   1.42800000E+00    1.00000000E+00 
****
O    0
S    6    1.000000
   2.70323826E+04    2.17263025E-04 
   4.05238714E+03    1.68386622E-03 
   9.22327227E+02    8.73956163E-03 
   2.61240710E+02    3.52399688E-02 
   8.53546414E+01    1.11535191E-01 
   3.10350352E+01    2.55889540E-01 
S    2    1.000000
   1.22608607E+01    3.97687309E-01 
   4.99870760E+00    2.46278494E-01 
S    1    1.000000
   1.17031082E+00    1.00000000E+00 
S    1    1.000000
   4.64747410E-01    1.00000000E+00 
S    1    1.000000
   1.85045364E-01    1.00000000E+00 
S    1    1.000000
   7.02880263E-02    1.00000000E+00 
P    4    1.000000
   6.32749548E+01    6.06851034E-03 
   1.46270494E+01    4.19125758E-02 
   4.45012235E+00    1.61538411E-01 
   1.52757996E+00    3.57069513E-01 
P    1    1.000000
   5.29351179E-01    4.47942075E-01 
P    1    1.000000
   1.74784213E-01    2.44460697E-01 
P    1    1.000000
   5.11127457E-02    1.00000000E+00 
D    1    1.000000
   2.31400000E+00    1.00000000E+00 
D    1    1.000000
   6.45000000E-01    1.00000000E+00 
F    1    1.000000
   1.42800000E+00    1.00000000E+00 
****
H    0
S    3    1.000000
   3.40613410E+01    6.02519780E-03 
   5.12357460E+00    4.50210940E-02 
   1.16466260E+00    2.01897260E-01 
S    1    1.000000
   3.27230410E-01    1.00000000E+00 
S    1    1.000000
   1.03072410E-01    1.00000000E+00 
P    1    1.000000
   8.00000000E-01    1.00000000E+00 
****
H    0
S    3    1.000000
   3.40613410E+01    6.02519780E-03 
   5.12357460E+00    4.50210940E-02 
   1.16466260E+00    2.01897260E-01 
S    1    1.000000
   3.27230410E-01    1.00000000E+00 
S    1    1.000000
   1.03072410E-01    1.00000000E+00 
P    1    1.000000
   8.00000000E-01    1.00000000E+00 
****
H    0
S    3    1.000000
   3.40613410E+01    6.02519780E-03 
   5.12357460E+00    4.50210940E-02 
   1.16466260E+00    2.01897260E-01 
S    1    1.000000
   3.27230410E-01    1.00000000E+00 
S    1    1.000000
   1.03072410E-01    1.00000000E+00 
P    1    1.000000
   8.00000000E-01    1.00000000E+00 
****
H    0
S    3    1.000000
   3.40613410E+01    6.02519780E-03 
   5.12357460E+00    4.50210940E-02 
   1.16466260E+00    2.01897260E-01 
S    1    1.000000
   3.27230410E-01    1.00000000E+00 
S    1    1.000000
   1.03072410E-01    1.00000000E+00 
P    1    1.000000
   8.00000000E-01    1.00000000E+00 
****
C    0
S    6    1.000000
   1.35753497E+04    2.22458144E-04 
   2.03523337E+03    1.72327383E-03 
   4.63225624E+02    8.92557153E-03 
   1.31200196E+02    3.57279845E-02 
   4.28530159E+01    1.10762599E-01 
   1.55841858E+01    2.42956276E-01 
S    2    1.000000
   6.20671385E+00    4.14402634E-01 
   2.57648965E+00    2.37449687E-01 
S    1    1.000000
   5.76963394E-01    1.00000000E+00 
S    1    1.000000
   2.29728314E-01    1.00000000E+00 
S    1    1.000000
   9.51644400E-02    1.00000000E+00 
S    1    1.000000
   4.84754014E-02    1.00000000E+00 
P    4    1.000000
   3.46972322E+01    5.33336578E-03 
   7.95826228E+00    3.58641091E-02 
   2.37808269E+00    1.42158733E-01 
   8.14332082E-01    3.42704718E-01 
P    1    1.000000
   2.88875473E-01    4.64458224E-01 
P    1    1.000000
   1.00568237E-01    2.49557899E-01 
D    1    1.000000
   1.09700000E+00    1.00000000E+00 
D    1    1.000000
   3.18000000E-01    1.00000000E+00 
F    1    1.000000
   7.61000000E-01    1.00000000E+00 
****
H    0
S    3    1.000000
   3.40613410E+01    6.02519780E-03 
   5.12357460E+00    4.50210940E-02 
   1.16466260E+00    2.01897260E-01 
S    1    1.000000
   3.27230410E-01    1.00000000E+00 
S    1    1.000000
   1.03072410E-01    1.00000000E+00 
P    1    1.000000
   8.00000000E-01    1.00000000E+00 
****
H    0
S    3    1.000000
   3.40613410E+01    6.02519780E-03 
   5.12357460E+00    4.50210940E-02 
   1.16466260E+00    2.01897260E-01 
S    1    1.000000
   3.27230410E-01    1.00000000E+00 
S    1    1.000000
   1.03072410E-01    1.00000000E+00 
P    1    1.000000
   8.00000000E-01    1.00000000E+00 
****
H    0
S    3    1.000000
   3.40613410E+01    6.02519780E-03 
   5.12357460E+00    4.50210940E-02 
   1.16466260E+00    2.01897260E-01 
S    1    1.000000
   3.27230410E-01    1.00000000E+00 
S    1    1.000000
   1.03072410E-01    1.00000000E+00 
P    1    1.000000
   8.00000000E-01    1.00000000E+00 
****
O    0
S    6    1.000000
   2.70323826E+04    2.17263025E-04 
   4.05238714E+03    1.68386622E-03 
   9.22327227E+02    8.73956163E-03 
   2.61240710E+02    3.52399688E-02 
   8.53546414E+01    1.11535191E-01 
   3.10350352E+01    2.55889540E-01 
S    2    1.000000
   1.22608607E+01    3.97687309E-01 
   4.99870760E+00    2.46278494E-01 
S    1    1.000000
   1.17031082E+00    1.00000000E+00 
S    1    1.000000
   4.64747410E-01    1.00000000E+00 
S    1    1.000000
   1.85045364E-01    1.00000000E+00 
S    1    1.000000
   7.02880263E-02    1.00000000E+00 
P    4    1.000000
   6.32749548E+01    6.06851034E-03 
   1.46270494E+01    4.19125758E-02 
   4.45012235E+00    1.61538411E-01 
   1.52757996E+00    3.57069513E-01 
P    1    1.000000
   5.29351179E-01    4.47942075E-01 
P    1    1.000000
   1.74784213E-01    2.44460697E-01 
P    1    1.000000
   5.11127457E-02    1.00000000E+00 
D    1    1.000000
   2.31400000E+00    1.00000000E+00 
D    1    1.000000
   6.45000000E-01    1.00000000E+00 
F    1    1.000000
   1.42800000E+00    1.00000000E+00 
****
C    0
S    6    1.000000
   1.35753497E+04    2.22458144E-04 
   2.03523337E+03    1.72327383E-03 
   4.63225624E+02    8.92557153E-03 
   1.31200196E+02    3.57279845E-02 
   4.28530159E+01    1.10762599E-01 
   1.55841858E+01    2.42956276E-01 
S    2    1.000000
   6.20671385E+00    4.14402634E-01 
   2.57648965E+00    2.37449687E-01 
S    1    1.000000
   5.76963394E-01    1.00000000E+00 
S    1    1.000000
   2.29728314E-01    1.00000000E+00 
S    1    1.000000
   9.51644400E-02    1.00000000E+00 
S    1    1.000000
   4.84754014E-02    1.00000000E+00 
P    4    1.000000
   3.46972322E+01    5.33336578E-03 
   7.95826228E+00    3.58641091E-02 
   2.37808269E+00    1.42158733E-01 
   8.14332082E-01    3.42704718E-01 
P    1    1.000000
   2.88875473E-01    4.64458224E-01 
P    1    1.000000
   1.00568237E-01    2.49557899E-01 
D    1    1.000000
   1.09700000E+00    1.00000000E+00 
D    1    1.000000
   3.18000000E-01    1.00000000E+00 
F    1    1.000000
   7.61000000E-01    1.00000000E+00 
****
H    0
S    3    1.000000
   3.40613410E+01    6.02519780E-03 
   5.12357460E+00    4.50210940E-02 
   1.16466260E+00    2.01897260E-01 
S    1    1.000000
   3.27230410E-01    1.00000000E+00 
S    1    1.000000
   1.03072410E-01    1.00000000E+00 
P    1    1.000000
   8.00000000E-01    1.00000000E+00 
****
H    0
S    3    1.000000
   3.40613410E+01    6.02519780E-03 
   5.12357460E+00    4.50210940E-02 
   1.16466260E+00    2.01897260E-01 
S    1    1.000000
   3.27230410E-01    1.00000000E+00 
S    1    1.000000
   1.03072410E-01    1.00000000E+00 
P    1    1.000000
   8.00000000E-01    1.00000000E+00 
****
H    0
S    3    1.000000
   3.40613410E+01    6.02519780E-03 
   5.12357460E+00    4.50210940E-02 
   1.16466260E+00    2.01897260E-01 
S    1    1.000000
   3.27230410E-01    1.00000000E+00 
S    1    1.000000
   1.03072410E-01    1.00000000E+00 
P    1    1.000000
   8.00000000E-01    1.00000000E+00 
****
$end
-----------------------------------------------------------------------
 There are 351 shells and 873 basis functions

 Total QAlloc Memory Limit  64000 MB
 Mega-Array Size      1956 MB
 MEM_STATIC part      2000 MB

 User-specified dielectric constants (eps_0 = 78.39, eps_inf = 1.78)
 Using C-PCM dielectric factor f(eps) = (eps-1)/eps = 0.987243
 Static dielectric constant eps = 78.39
 Discretize the solute cavity surface with Lebedev spheres
	Using 110 Lebedev grid points for each H atom
	Using 194 Lebedev grid points for other atoms
	Atomic van der Waals radii (Bondi set) will be scaled by 1.20
 Using smooth SwiG surface discretization
 Remove points where switching function is < 1.0e-08
 Keep 2512 surface tesserae and discard 3684 interior tesserae
 Molecular Surface Area = 347.891 Angst**2

 A cutoff of  1.0D-12 yielded  42218 shell pairs
 There are    243694 function pairs (    307644 Cartesian)
 Smallest overlap matrix eigenvalue = 3.71E-06

 Scale SEOQF with 1.000000e-02/1.000000e-02/1.000000e-01

 Standard Electronic Orientation quadrupole field applied
 Nucleus-field energy     =    -0.0000000076 hartrees
 Guess from superposition of atomic densities
 Warning:  Energy on first SCF cycle will be non-variational
 SAD guess density has 172.000000 electrons

 -----------------------------------------------------------------------
  General SCF calculation program by
  Eric Jon Sundstrom, Paul Horn, Yuezhi Mao, Dmitri Zuev, Alec White,
  David Stuck, Shaama M.S., Shane Yost, Joonho Lee, David Small,
  Daniel Levine, Susi Lehtola, Hugh Burton, Evgeny Epifanovsky,
  Bang C. Huynh
 -----------------------------------------------------------------------
 Exchange:     0.1900 Hartree-Fock + 0.3500 B88 + 0.4600 muB88 + LR-HF
 Correlation:  0.1900 VWN5 + 0.8100 LYP
 Using SG-1 standard quadrature grid
 using 16 threads for integral computing
 -------------------------------------------------------
 OpenMP Integral computing Module                
 Release: version 1.0, May 2013, Q-Chem Inc. Pittsburgh 
 -------------------------------------------------------
 C-PCM solvent model [f = (eps-1)/eps], solve by matrix inversion
 DFT Correlation          Energy =  -6.99340138393767
 DFT Exchange             Energy = -106.74975306875650
 HF Exchange              Energy = -43.86491360021518
 One-Electron             Energy = -5552.25613770532436
 SCRF wf-dependent energy Energy =   0.00000000000000
 Total Coulomb            Energy = 2530.89516152831311
 Nuclear repulsion Energy = 1989.25811721907576
 A restricted SCF calculation will be
 performed using DIIS
 SCF converges when DIIS error is below 1.0e-08
 DFT Correlation          Energy =  -6.99340138393767
 DFT Exchange             Energy = -106.74975306875650
 HF Exchange              Energy = -43.86491360021518
 One-Electron             Energy = -5552.25613770532436
 SCRF wf-dependent energy Energy =   0.00000000000000
 Total Coulomb            Energy = 2530.89516152831311
 ---------------------------------------
  Cycle       Energy         DIIS error
 ---------------------------------------
 DFT Correlation          Energy =  -7.08539541517074
 DFT Exchange             Energy = -109.05245600163268
 HF Exchange              Energy = -42.41702593707640
 One-Electron             Energy = -5577.03619023022839
 SCRF wf-dependent energy Energy =   0.03703827845197
 Total Coulomb            Energy = 2563.89996839205378
 Nuclear repulsion Energy = 1989.25811721907576
    1   -1189.7109270108      1.95e-02  
 DFT Correlation          Energy =  -7.02304688804437
 DFT Exchange             Energy = -107.19742579216428
 HF Exchange              Energy = -41.90032942947506
 One-Electron             Energy = -5563.02244592828447
 SCRF wf-dependent energy Energy =   1.75505116705403
 Total Coulomb            Energy = 2545.88633288966321
 Nuclear repulsion Energy = 1989.25811721907576
    2   -1182.3959436945      2.04e-03  
 DFT Correlation          Energy =  -7.05016629746508
 DFT Exchange             Energy = -108.08798139511664
 HF Exchange              Energy = -42.16881511734656
 One-Electron             Energy = -5566.17342826530967
 SCRF wf-dependent energy Energy =  -0.13350829603701
 Total Coulomb            Energy = 2551.65442651276726
 Nuclear repulsion Energy = 1989.25811721907576
    3   -1182.2437467622      2.61e-03  
 DFT Correlation          Energy =  -7.05287976193267
 DFT Exchange             Energy = -108.13135360918524
 HF Exchange              Energy = -42.17916195835502
 One-Electron             Energy = -5568.69328640395634
 SCRF wf-dependent energy Energy =   0.46999084608592
 Total Coulomb            Energy = 2553.61004258276625
 Nuclear repulsion Energy = 1989.25811721907576
    4   -1182.7013556394      5.04e-04  
 DFT Correlation          Energy =  -7.05241866945094
 DFT Exchange             Energy = -108.11780780094243
 HF Exchange              Energy = -42.17655731896099
 One-Electron             Energy = -5568.47185725137660
 SCRF wf-dependent energy Energy =   0.42286126451381
 Total Coulomb            Energy = 2553.41709264056908
 Nuclear repulsion Energy = 1989.25811721907576
    5   -1182.7185310855      1.72e-04  
 DFT Correlation          Energy =  -7.05214268080892
 DFT Exchange             Energy = -108.11538209833874
 HF Exchange              Energy = -42.17692464037861
 One-Electron             Energy = -5568.29209946533047
 SCRF wf-dependent energy Energy =   0.39688931761589
 Total Coulomb            Energy = 2553.26069588938299
 Nuclear repulsion Energy = 1989.25811721907576
    6   -1182.7205699166      5.42e-05  
 DFT Correlation          Energy =  -7.05214556544020
 DFT Exchange             Energy = -108.11479044972660
 HF Exchange              Energy = -42.17704785815523
 One-Electron             Energy = -5568.30645620005635
 SCRF wf-dependent energy Energy =   0.40264669954422
 Total Coulomb            Energy = 2553.26878797825157
 Nuclear repulsion Energy = 1989.25811721907576
    7   -1182.7208464588      1.71e-05  
 DFT Correlation          Energy =  -7.05220963451043
 DFT Exchange             Energy = -108.11636916657579
 HF Exchange              Energy = -42.17761946708571
 One-Electron             Energy = -5568.33702022097805
 SCRF wf-dependent energy Energy =   0.40523069435881
 Total Coulomb            Energy = 2553.29896819261376
 Nuclear repulsion Energy = 1989.25811721907576
    8   -1182.7208881765      7.01e-06  
 DFT Correlation          Energy =  -7.05219999264872
 DFT Exchange             Energy = -108.11627257447054
 HF Exchange              Energy = -42.17770734002084
 One-Electron             Energy = -5568.33422349902685
 SCRF wf-dependent energy Energy =   0.40578880000362
 Total Coulomb            Energy = 2553.29558935452042
 Nuclear repulsion Energy = 1989.25811721907576
    9   -1182.7209023831      3.40e-06  
 DFT Correlation          Energy =  -7.05219663092846
 DFT Exchange             Energy = -108.11614944019006
 HF Exchange              Energy = -42.17770068046799
 One-Electron             Energy = -5568.33078903384194
 SCRF wf-dependent energy Energy =   0.40517663001219
 Total Coulomb            Energy = 2553.29263285661409
 Nuclear repulsion Energy = 1989.25811721907576
   10   -1182.7209080326      1.78e-06  
 DFT Correlation          Energy =  -7.05220255542780
 DFT Exchange             Energy = -108.11633241891965
 HF Exchange              Energy = -42.17775023988351
 One-Electron             Energy = -5568.33433562659684
 SCRF wf-dependent energy Energy =   0.40568656630580
 Total Coulomb            Energy = 2553.29590772376378
 Nuclear repulsion Energy = 1989.25811721907576
   11   -1182.7209090797      6.85e-07  
 DFT Correlation          Energy =  -7.05220227870901
 DFT Exchange             Energy = -108.11630107423211
 HF Exchange              Energy = -42.17773994345196
 One-Electron             Energy = -5568.33411501498176
 SCRF wf-dependent energy Energy =   0.40567782879111
 Total Coulomb            Energy = 2553.29565389667687
 Nuclear repulsion Energy = 1989.25811721907576
   12   -1182.7209093317      3.71e-07  
 DFT Correlation          Energy =  -7.05220223919204
 DFT Exchange             Energy = -108.11631528071190
 HF Exchange              Energy = -42.17774292040082
 One-Electron             Energy = -5568.33397378895006
 SCRF wf-dependent energy Energy =   0.40564678094916
 Total Coulomb            Energy = 2553.29556085531067
 Nuclear repulsion Energy = 1989.25811721907576
   13   -1182.7209093668      1.80e-07  
 DFT Correlation          Energy =  -7.05220224954565
 DFT Exchange             Energy = -108.11631312686660
 HF Exchange              Energy = -42.17774192682203
 One-Electron             Energy = -5568.33403303276100
 SCRF wf-dependent energy Energy =   0.40566637116399
 Total Coulomb            Energy = 2553.29559737179625
 Nuclear repulsion Energy = 1989.25811721907576
   14   -1182.7209093739      3.96e-08  
 DFT Correlation          Energy =  -7.05220227642279
 DFT Exchange             Energy = -108.11631388106424
 HF Exchange              Energy = -42.17774196737182
 One-Electron             Energy = -5568.33405538227362
 SCRF wf-dependent energy Energy =   0.40567424951814
 Total Coulomb            Energy = 2553.29561266448218
 Nuclear repulsion Energy = 1989.25811721907576
   15   -1182.7209093740      1.81e-08  
   16   -1182.7209093741      4.10e-09  Convergence criterion met
 ---------------------------------------
 DFT Correlation          Energy =  -7.05220227642279
 DFT Exchange             Energy = -108.11631388106424
 HF Exchange              Energy = -42.17774196737182
 One-Electron             Energy = -5568.33405538227362
 SCRF wf-dependent energy Energy =   0.40567424951814
 Total Coulomb            Energy = 2553.29561266448218
 Final Alpha MO Eigenvalues
            1           2           3           4           5           6
    1 -19.2908397 -19.2467268 -19.2465027 -19.2441383 -19.2309980 -19.2284829
            7           8           9          10          11          12
    1 -19.1638842 -10.3644112 -10.3440138 -10.3399828 -10.3391058 -10.3368186
           13          14          15          16          17          18
    1 -10.3205833 -10.3062967 -10.3029700 -10.2891788 -10.2882822 -10.2841038
           19          20          21          22          23          24
    1 -10.2769256 -10.2698946 -10.2581704 -10.2542392 -10.2533488 -10.2531841
           25          26          27          28          29          30
    1  -1.2189532  -1.1627158  -1.1615288  -1.1569759  -1.1501969  -1.1436655
           31          32          33          34          35          36
    1  -1.0812877  -0.9700384  -0.9450045  -0.9163763  -0.8814795  -0.8445643
           37          38          39          40          41          42
    1  -0.8388013  -0.8250112  -0.7897251  -0.7819095  -0.7588692  -0.7457025
           43          44          45          46          47          48
    1  -0.7175842  -0.6957601  -0.6820997  -0.6589822  -0.6448951  -0.6321216
           49          50          51          52          53          54
    1  -0.6224900  -0.6031687  -0.5893936  -0.5725032  -0.5705142  -0.5670567
           55          56          57          58          59          60
    1  -0.5593613  -0.5498239  -0.5452042  -0.5396907  -0.5354156  -0.5208113
           61          62          63          64          65          66
    1  -0.5147456  -0.5138458  -0.5025526  -0.4947963  -0.4922554  -0.4834093
           67          68          69          70          71          72
    1  -0.4809762  -0.4770673  -0.4761170  -0.4696954  -0.4562471  -0.4511078
           73          74          75          76          77          78
    1  -0.4362335  -0.4253650  -0.4223349  -0.4122819  -0.4075024  -0.4000940
           79          80          81          82          83          84
    1  -0.3954736  -0.3786965  -0.3599034  -0.3190080  -0.3168724  -0.2910155
           85          86          87          88          89          90
    1  -0.2861587  -0.2328316  -0.0669967   0.0085995   0.0269591   0.0336492
           91          92          93          94          95          96
    1   0.0352304   0.0367199   0.0451074   0.0482384   0.0583718   0.0596378
           97          98          99         100         101         102
    1   0.0607604   0.0646729   0.0733262   0.0753339   0.0798203   0.0862542
          103         104         105         106         107         108
    1   0.0899758   0.0933462   0.1000601   0.1009446   0.1049955   0.1098423
          109         110         111         112         113         114
    1   0.1122264   0.1135708   0.1197563   0.1248460   0.1320933   0.1374633
          115         116         117         118         119         120
    1   0.1394549   0.1446123   0.1514715   0.1537727   0.1557686   0.1617259
          121         122         123         124         125         126
    1   0.1675048   0.1738090   0.1785206   0.1851152   0.1859427   0.1901018
          127         128         129         130         131         132
    1   0.1965272   0.1996286   0.2000228   0.2035076   0.2134243   0.2181276
          133         134         135         136         137         138
    1   0.2199709   0.2255521   0.2287495   0.2312285   0.2318768   0.2396752
          139         140         141         142         143         144
    1   0.2422644   0.2446109   0.2493309   0.2568203   0.2590152   0.2601217
          145         146         147         148         149         150
    1   0.2661872   0.2744535   0.2786752   0.2807630   0.2832273   0.2865017
          151         152         153         154         155         156
    1   0.2877117   0.2932230   0.2951053   0.3063150   0.3080144   0.3088305
          157         158         159         160         161         162
    1   0.3114695   0.3133228   0.3174027   0.3194428   0.3214887   0.3261598
          163         164         165         166         167         168
    1   0.3311980   0.3355871   0.3385318   0.3393235   0.3436238   0.3534855
          169         170         171         172         173         174
    1   0.3563334   0.3655467   0.3683996   0.3701647   0.3712592   0.3763130
          175         176         177         178         179         180
    1   0.3807835   0.3838769   0.3864431   0.3873500   0.3941007   0.3998143
          181         182         183         184         185         186
    1   0.4016027   0.4038531   0.4186161   0.4211262   0.4228513   0.4323153
          187         188         189         190         191         192
    1   0.4359354   0.4371804   0.4425351   0.4452968   0.4561666   0.4588291
          193         194         195         196         197         198
    1   0.4607869   0.4635090   0.4656004   0.4685090   0.4697117   0.4734811
          199         200         201         202         203         204
    1   0.4811684   0.4821156   0.4864881   0.4880865   0.4885517   0.4927044
          205         206         207         208         209         210
    1   0.4986602   0.5003653   0.5097169   0.5102649   0.5151391   0.5195823
          211         212         213         214         215         216
    1   0.5217727   0.5258281   0.5287937   0.5364538   0.5379155   0.5429659
          217         218         219         220         221         222
    1   0.5515825   0.5572808   0.5637439   0.5703185   0.5763383   0.5810755
          223         224         225         226         227         228
    1   0.5834221   0.5882058   0.5910335   0.5989963   0.6078229   0.6126555
          229         230         231         232         233         234
    1   0.6204704   0.6306164   0.6323976   0.6372986   0.6385803   0.6412037
          235         236         237         238         239         240
    1   0.6455899   0.6526859   0.6556189   0.6588211   0.6635555   0.6693398
          241         242         243         244         245         246
    1   0.6709549   0.6733781   0.6745927   0.6823019   0.6867183   0.6960521
          247         248         249         250         251         252
    1   0.6970038   0.7091444   0.7116171   0.7139057   0.7189554   0.7270665
          253         254         255         256         257         258
    1   0.7334036   0.7410622   0.7458251   0.7476587   0.7540149   0.7609186
          259         260         261         262         263         264
    1   0.7656839   0.7698686   0.7744140   0.7763627   0.7791886   0.7814673
          265         266         267         268         269         270
    1   0.7827901   0.7915637   0.7957980   0.8009126   0.8098360   0.8108740
          271         272         273         274         275         276
    1   0.8131914   0.8180982   0.8224375   0.8310028   0.8396015   0.8465742
          277         278         279         280         281         282
    1   0.8479936   0.8502860   0.8544997   0.8625482   0.8704347   0.8810757
          283         284         285         286         287         288
    1   0.8926698   0.9015610   0.9054746   0.9084661   0.9120712   0.9136604
          289         290         291         292         293         294
    1   0.9285995   0.9342835   0.9364391   0.9485800   0.9526163   0.9585325
          295         296         297         298         299         300
    1   0.9638345   0.9845363   0.9868489   0.9949503   1.0089696   1.0250223
          301         302         303         304         305         306
    1   1.0396382   1.0404794   1.0449269   1.0505924   1.0529165   1.0667332
          307         308         309         310         311         312
    1   1.0698386   1.0730792   1.0805442   1.0870241   1.1009146   1.1159871
          313         314         315         316         317         318
    1   1.1225309   1.1248742   1.1281428   1.1347076   1.1365086   1.1492081
          319         320         321         322         323         324
    1   1.1607692   1.1676006   1.1752403   1.1812773   1.1906632   1.1938820
          325         326         327         328         329         330
    1   1.2040424   1.2088518   1.2179131   1.2192922   1.2226305   1.2279050
          331         332         333         334         335         336
    1   1.2358150   1.2429632   1.2490118   1.2603401   1.2734911   1.2904964
          337         338         339         340         341         342
    1   1.2928432   1.3031903   1.3140123   1.3167225   1.3309682   1.3332150
          343         344         345         346         347         348
    1   1.3446947   1.3465785   1.3624997   1.3793398   1.3891198   1.3975875
          349         350         351         352         353         354
    1   1.4042066   1.4075307   1.4179504   1.4317823   1.4374211   1.4471114
          355         356         357         358         359         360
    1   1.4573647   1.4700152   1.4838569   1.4865343   1.4981001   1.5014493
          361         362         363         364         365         366
    1   1.5024009   1.5187404   1.5217873   1.5351863   1.5383841   1.5453380
          367         368         369         370         371         372
    1   1.5542628   1.5607651   1.5667574   1.5726663   1.5760845   1.5851479
          373         374         375         376         377         378
    1   1.5896202   1.5900691   1.5988189   1.5998150   1.6007420   1.6059652
          379         380         381         382         383         384
    1   1.6139180   1.6188599   1.6401776   1.6441303   1.6501461   1.6660346
          385         386         387         388         389         390
    1   1.6698328   1.6828589   1.6914391   1.6937317   1.6983810   1.7102420
          391         392         393         394         395         396
    1   1.7163388   1.7168307   1.7202749   1.7325889   1.7349089   1.7422680
          397         398         399         400         401         402
    1   1.7526326   1.7559558   1.7621454   1.7725701   1.7763260   1.7769947
          403         404         405         406         407         408
    1   1.7913137   1.7945448   1.8101192   1.8152384   1.8410781   1.8476993
          409         410         411         412         413         414
    1   1.8604495   1.8643131   1.8675037   1.8934316   1.8951600   1.9023015
          415         416         417         418         419         420
    1   1.9113565   1.9222386   1.9284906   1.9403382   1.9446741   1.9498644
          421         422         423         424         425         426
    1   1.9612798   1.9746179   1.9765128   1.9821202   1.9932780   1.9946422
          427         428         429         430         431         432
    1   2.0119853   2.0133724   2.0281396   2.0372192   2.0489576   2.0694334
          433         434         435         436         437         438
    1   2.0704502   2.0855018   2.0879102   2.0892445   2.1005575   2.1038887
          439         440         441         442         443         444
    1   2.1074954   2.1130252   2.1177409   2.1299004   2.1321469   2.1475663
          445         446         447         448         449         450
    1   2.1591475   2.1701465   2.1746887   2.1785898   2.1862331   2.2020315
          451         452         453         454         455         456
    1   2.2055837   2.2104484   2.2157491   2.2174571   2.2255109   2.2380187
          457         458         459         460         461         462
    1   2.2445885   2.2469776   2.2546865   2.2753647   2.2922573   2.2948020
          463         464         465         466         467         468
    1   2.2960494   2.3018648   2.3171036   2.3346759   2.3413284   2.3536341
          469         470         471         472         473         474
    1   2.3551625   2.3570994   2.3668632   2.3695009   2.3738892   2.3851550
          475         476         477         478         479         480
    1   2.4066032   2.4180969   2.4225877   2.4462332   2.4565552   2.4659088
          481         482         483         484         485         486
    1   2.4732901   2.4752933   2.4843152   2.4889749   2.5040544   2.5118887
          487         488         489         490         491         492
    1   2.5213978   2.5306665   2.5415868   2.5456780   2.5542108   2.5681623
          493         494         495         496         497         498
    1   2.5747293   2.5797426   2.5845878   2.5932751   2.5971620   2.6035647
          499         500         501         502         503         504
    1   2.6109282   2.6154088   2.6387168   2.6442517   2.6450174   2.6506659
          505         506         507         508         509         510
    1   2.6656462   2.6852223   2.6897757   2.6957673   2.7014573   2.7047873
          511         512         513         514         515         516
    1   2.7202052   2.7221109   2.7325121   2.7357996   2.7511877   2.7532631
          517         518         519         520         521         522
    1   2.7653228   2.7707951   2.7819368   2.7941563   2.7974349   2.8010744
          523         524         525         526         527         528
    1   2.8038083   2.8157612   2.8230629   2.8272075   2.8363375   2.8444686
          529         530         531         532         533         534
    1   2.8625292   2.8659482   2.8701325   2.8794313   2.8864565   2.8908728
          535         536         537         538         539         540
    1   2.8942772   2.8959592   2.9025570   2.9079534   2.9180230   2.9252115
          541         542         543         544         545         546
    1   2.9359511   2.9429308   2.9462890   2.9603757   2.9626648   2.9661961
          547         548         549         550         551         552
    1   2.9697046   2.9755661   2.9896235   2.9984799   3.0034887   3.0090323
          553         554         555         556         557         558
    1   3.0233771   3.0285616   3.0298156   3.0345543   3.0418934   3.0472175
          559         560         561         562         563         564
    1   3.0504211   3.0761225   3.0798718   3.0819574   3.0840330   3.0886106
          565         566         567         568         569         570
    1   3.0980202   3.1201324   3.1297999   3.1408362   3.1450642   3.1478269
          571         572         573         574         575         576
    1   3.1500416   3.1541676   3.1662736   3.1671022   3.1705736   3.1863988
          577         578         579         580         581         582
    1   3.1937544   3.2031431   3.2043125   3.2161691   3.2236785   3.2254965
          583         584         585         586         587         588
    1   3.2330408   3.2412131   3.2473618   3.2573146   3.2653638   3.2670796
          589         590         591         592         593         594
    1   3.2750383   3.2783696   3.2816872   3.2834517   3.2868537   3.2952063
          595         596         597         598         599         600
    1   3.3063892   3.3078881   3.3124032   3.3146107   3.3336144   3.3366051
          601         602         603         604         605         606
    1   3.3444118   3.3529666   3.3644754   3.3683688   3.3713540   3.3755249
          607         608         609         610         611         612
    1   3.3940550   3.3974776   3.4024593   3.4049893   3.4208008   3.4259229
          613         614         615         616         617         618
    1   3.4283808   3.4308770   3.4345306   3.4429451   3.4440771   3.4480469
          619         620         621         622         623         624
    1   3.4630780   3.4637754   3.4702549   3.4709572   3.4787326   3.4827080
          625         626         627         628         629         630
    1   3.4957310   3.4957968   3.5033679   3.5074788   3.5122079   3.5268924
          631         632         633         634         635         636
    1   3.5274878   3.5346472   3.5379346   3.5395160   3.5636121   3.5742173
          637         638         639         640         641         642
    1   3.5793008   3.5839071   3.5961383   3.6037867   3.6129454   3.6157967
          643         644         645         646         647         648
    1   3.6209911   3.6226690   3.6265430   3.6405687   3.6467152   3.6512454
          649         650         651         652         653         654
    1   3.6576301   3.6785580   3.6850530   3.6873399   3.6985162   3.7073572
          655         656         657         658         659         660
    1   3.7158545   3.7195562   3.7325704   3.7465848   3.7572539   3.7591919
          661         662         663         664         665         666
    1   3.7686121   3.7910387   3.7953369   3.8153944   3.8275652   3.8545158
          667         668         669         670         671         672
    1   3.8640552   3.8901421   3.8937252   3.8963145   3.9126998   3.9328572
          673         674         675         676         677         678
    1   3.9475454   3.9520366   3.9673002   4.0147088   4.0467731   4.0500216
          679         680         681         682         683         684
    1   4.0542279   4.0590553   4.0699176   4.0871382   4.0965509   4.1074419
          685         686         687         688         689         690
    1   4.1171004   4.1342122   4.1467429   4.1514430   4.1522903   4.1668707
          691         692         693         694         695         696
    1   4.1905787   4.2180617   4.2257731   4.2342670   4.2404766   4.2429858
          697         698         699         700         701         702
    1   4.2475991   4.2607236   4.2707849   4.2838207   4.2864524   4.2934036
          703         704         705         706         707         708
    1   4.3142046   4.3180336   4.3193850   4.3356103   4.3411947   4.3582470
          709         710         711         712         713         714
    1   4.4100495   4.4198501   4.4364785   4.4426054   4.4514225   4.4630985
          715         716         717         718         719         720
    1   4.4764486   4.4771115   4.4933119   4.5052104   4.5290571   4.5441017
          721         722         723         724         725         726
    1   4.5537895   4.5586953   4.5916662   4.6357230   4.6430586   4.6545134
          727         728         729         730         731         732
    1   4.6642386   4.6696519   4.6735889   4.6821840   4.6876305   4.7051836
          733         734         735         736         737         738
    1   4.7137757   4.7391421   4.7781542   4.8249519   4.8528128   4.8935500
          739         740         741         742         743         744
    1   4.9017661   4.9090880   4.9303880   4.9431699   4.9513202   5.0033311
          745         746         747         748         749         750
    1   5.0074626   5.0413496   5.0797103   5.0875147   5.1045654   5.1448707
          751         752         753         754         755         756
    1   5.1626956   5.1837059   5.2052173   5.2480907   5.2792657   5.2928199
          757         758         759         760         761         762
    1   5.3027741   5.3114851   5.3156035   5.3190216   5.3221310   5.3573659
          763         764         765         766         767         768
    1   5.3714557   5.3809031   5.3908593   5.4050092   5.4286037   5.4633091
          769         770         771         772         773         774
    1   5.4983342   5.5217409   5.5264322   5.5274199   5.5361043   5.5548043
          775         776         777         778         779         780
    1   5.5587209   5.5737894   5.5883641   5.6066102   5.6417642   5.6775814
          781         782         783         784         785         786
    1   5.6850823   5.7583535   5.7864281   5.7924819   5.8070519   5.8170624
          787         788         789         790         791         792
    1   5.8228735   5.8457239   5.8589409   5.8952664   5.9331015   5.9751373
          793         794         795         796         797         798
    1   5.9965211   6.0516469   6.0657741   6.1066157   6.1095066   6.1243776
          799         800         801         802         803         804
    1   6.1907069   6.2404459   6.2581030   6.2861200   6.3267463   6.3947904
          805         806         807         808         809         810
    1   6.4216507   6.4530118   6.4658519   6.4712616   6.4721888   6.4730703
          811         812         813         814         815         816
    1   6.4817703   6.4915586   6.5313997   6.5685691   6.6224116   6.6619155
          817         818         819         820         821         822
    1   6.7001920   6.7065117   6.7089946   6.7541249   6.7742106   6.7789626
          823         824         825         826         827         828
    1   6.7875885   6.8698746   6.8804355   6.8952643   6.9240011   6.9297457
          829         830         831         832         833         834
    1   6.9324414   6.9392674   6.9469434   6.9675377   6.9746268   6.9880416
          835         836         837         838         839         840
    1   7.0522855   7.1027382   7.1270250   7.1624319   7.2392886   7.2808407
          841         842         843         844         845         846
    1   7.2985817   7.3138239   7.3711009   7.4052249   7.4207055   7.5118774
          847         848         849         850         851         852
    1   7.5308317   7.5718382   7.5988481  22.4598438  22.4783665  22.4994811
          853         854         855         856         857         858
    1  22.6876095  22.8129039  22.8419159  22.9019559  22.9507611  23.0127364
          859         860         861         862         863         864
    1  23.0653230  23.0739511  23.0921229  23.1423391  23.2112882  23.4042233
          865         866         867         868         869         870
    1  23.6568158  23.6852953  44.0957665  44.1167831  44.1476659  44.1976077
          871         872         873
    1  44.4032151  44.4351924  44.7350581
 SCF time:   CPU 12384.43s  wall 933.00s 
 DFT Correlation          Energy =  -7.05220227642279
 DFT Exchange             Energy = -108.11631388106424
 HF Exchange              Energy = -42.17774196737182
 One-Electron             Energy = -5568.33405538227362
 SCRF wf-dependent energy Energy =   0.40567424951814
 Total Coulomb            Energy = 2553.29561266448218
 Nuclear repulsion Energy = 1989.25811721907576

************** Final PCM Free Energy Summary **************
 G_electrostatic  =      -0.07364403 hartree =     -46.21232648 kcal/mol
 G_cavitation     =       0.00000000 hartree =       0.00000000 kcal/mol
 G_dispersion     =       0.00000000 hartree =       0.00000000 kcal/mol
 G_repulsion      =       0.00000000 hartree =       0.00000000 kcal/mol
 --------------------------------------------------
 Non-electrostatic Free Energy =       0.00000000 hartree =       0.00000000 kcal/mol
 Total                         =      -0.07364403 hartree =     -46.21232648 kcal/mol
 --------------------------------------------------
 SCF Energy (H0 + V/2)                       =   -1182.72090937 
 Solute Internal Energy (H0)                 =   -1182.64726534 
 Total Free Energy (H0 + V/2 + non-elec)     =   -1182.72090937 hartree
                                             = -742168.57580469 kcal/mol
***********************************************************

 SCF   energy = -1182.72090937
 Total energy = -1182.72090937
 MAX_CIS_SUBSPACE fits in available memory
 Direct TDDFT/TDA calculation will be performed
 Exchange:     0.1900 Hartree-Fock + 0.3500 B88 + 0.4600 muB88 + LR-HF
 Correlation:  0.1900 VWN5 + 0.8100 LYP
 Using SG-1 standard quadrature grid
 Triplet excitation energies requested
 Singlet excitation energies requested
 Adding PCM contribution to the XC response (LR-PCM)
 Optical dielectric constant (eps_inf) =  1.78
 CIS energy converged when residual is below 10e- 6
 ---------------------------------------------------
 Iter    Rts Conv    Rts Left    Ttl Dev     Max Dev
 ---------------------------------------------------
   1         0           7      0.000851    0.000157
   2         0           7      0.000303    0.000059
   3         0           7      0.000113    0.000035
   4         0           7      0.000172    0.000124
   5         2           5      0.000087    0.000064
   6         4           3      0.000055    0.000044
   7         5           2      0.000033    0.000028
   8         5           2      0.000047    0.000044
   9         6           1      0.000029    0.000026
  10         6           1      0.000013    0.000011
  11         6           1      0.000005    0.000003
  12         7           0      0.000003    0.000001    Roots Converged
 ---------------------------------------------------
 Triplets done: starting singlet calculation
 ---------------------------------------------------
 Iter    Rts Conv    Rts Left    Ttl Dev     Max Dev
 ---------------------------------------------------
  13         0           7      0.001841    0.000467
  14         0           7      0.000480    0.000100
  15         0           7      0.000244    0.000069
  16         0           7      0.000157    0.000058
  17         0           7      0.000076    0.000031
  18         2           5      0.000045    0.000020
  19         4           3      0.000020    0.000010
  20         4           3      0.000010    0.000005
  21         5           2      0.000005    0.000002
  22         7           0      0.000004    0.000001    Roots Converged
 ---------------------------------------------------
 
 ---------------------------------------------------
         TDDFT/TDA Excitation Energies              
 ---------------------------------------------------

 Excited state   1: excitation energy (eV) =       1.3012
 Total energy for state   1:                 -1182.67309112 au
    Multiplicity: Triplet
    Trans. Mom.:  0.0000 X   0.0000 Y   0.0000 Z
    Strength   :     0.0000000000
    D(   81) --> V(    1) amplitude = -0.0710
    D(   85) --> V(    2) amplitude =  0.0711
    D(   86) --> V(    1) amplitude =  0.9754

 Excited state   2: excitation energy (eV) =       2.7148
 Total energy for state   2:                 -1182.62114226 au
    Multiplicity: Triplet
    Trans. Mom.:  0.0000 X   0.0000 Y   0.0000 Z
    Strength   :     0.0000000000
    D(   80) --> V(    1) amplitude =  0.1039
    D(   81) --> V(    1) amplitude = -0.1762
    D(   81) --> V(   12) amplitude = -0.0722
    D(   83) --> V(    1) amplitude = -0.2176
    D(   83) --> V(    4) amplitude =  0.0725
    D(   84) --> V(    1) amplitude =  0.1017
    D(   85) --> V(    1) amplitude =  0.7909
    D(   85) --> V(    2) amplitude =  0.1538
    D(   85) --> V(    4) amplitude =  0.0800
    D(   86) --> V(    2) amplitude =  0.4134
    D(   86) --> V(    4) amplitude =  0.1067
    D(   86) --> V(   12) amplitude =  0.0958

 Excited state   3: excitation energy (eV) =       2.7350
 Total energy for state   3:                 -1182.62040143 au
    Multiplicity: Singlet
    Trans. Mom.:  3.6809 X   3.1049 Y  -0.4915 Z
    Strength   :     1.5699803611
    D(   85) --> V(    1) amplitude =  0.1271
    D(   86) --> V(    1) amplitude =  0.9657

 Excited state   4: excitation energy (eV) =       2.8871
 Total energy for state   4:                 -1182.61481134 au
    Multiplicity: Triplet
    Trans. Mom.:  0.0000 X   0.0000 Y   0.0000 Z
    Strength   :     0.0000000000
    D(   76) --> V(    1) amplitude = -0.0903
    D(   83) --> V(    9) amplitude =  0.0712
    D(   84) --> V(    1) amplitude =  0.9172
    D(   84) --> V(    2) amplitude = -0.1911
    D(   84) --> V(    4) amplitude = -0.1156
    D(   84) --> V(   12) amplitude = -0.1012
    D(   85) --> V(    1) amplitude = -0.1203
    D(   85) --> V(    9) amplitude = -0.0732
    D(   86) --> V(    9) amplitude =  0.1640
    D(   86) --> V(   12) amplitude =  0.0771

 Excited state   5: excitation energy (eV) =       3.5752
 Total energy for state   5:                 -1182.58952322 au
    Multiplicity: Triplet
    Trans. Mom.:  0.0000 X   0.0000 Y   0.0000 Z
    Strength   :     0.0000000000
    D(   82) --> V(    1) amplitude =  0.9012
    D(   82) --> V(    2) amplitude = -0.2678
    D(   82) --> V(    4) amplitude = -0.1571
    D(   82) --> V(    9) amplitude =  0.1048
    D(   82) --> V(   12) amplitude = -0.1961
    D(   82) --> V(   18) amplitude = -0.1169
[...]
      XZZZ     562.6784   YZZZ    -702.1763   ZZZZ   -1293.8454
    5th-Order Moments (Debye-Ang^4)
       500    2819.9792    410  -15229.3213    320  -12006.6011
       230  -22785.1729    140  -25501.7357    050 -101231.3991
       401    -257.6421    311    1293.3267    221    -880.2241
       131    1226.9974    041   -2313.0541    302    1113.6194
       212   -2029.3970    122   -2437.1947    032   -9939.8985
       203   -1042.1058    113     789.6280    023   -3914.5236
       104     786.7917    014   -3837.5099    005   -1922.6945
 -----------------------------------------------------------------
 -----------------------------------------------------------------
                 RPA Excited-State Multipoles, State    4   
                  LMN = < X^L Y^M Z^N >
 -----------------------------------------------------------------
    Charge (ESU x 10^10)
                 0.0000
    Dipole Moment (Debye)
         X     -14.8438      Y      -9.8833      Z       3.2953
       Tot      18.1350
    Quadrupole Moments (Debye-Ang)
        XX    -136.2878     XY     -50.7025     YY    -171.0321
        XZ     -12.0717     YZ      24.2785     ZZ    -126.9342
    Octopole Moments (Debye-Ang^2)
       XXX    -190.5337    XXY    -682.2988    XYY    -404.0944
       YYY   -1272.9671    XXZ       4.2058    XYZ      -1.5164
       YYZ     122.9834    XZZ      52.1166    YZZ    -286.8472
       ZZZ    -146.6882
    Hexadecapole Moments (Debye-Ang^3)
      XXXX   -5377.4138   XXXY   -2110.9895   XXYY   -4119.1548
      XYYY   -3737.9336   YYYY  -12090.2666   XXXZ     368.6056
      XXYZ    -122.0520   XYYZ     264.5693   YYYZ     345.8331
      XXZZ   -1068.8542   XYZZ    -565.5211   YYZZ   -1787.5616
      XZZZ     565.8348   YZZZ    -704.1864   ZZZZ   -1289.5190
    5th-Order Moments (Debye-Ang^4)
       500    2903.4260    410  -15630.0911    320  -12646.0267
       230  -23893.6423    140  -26571.1871    050  -99702.5979
       401    -344.7112    311    1302.0124    221    -858.7010
       131    1532.6259    041   -1347.5512    302    1165.5722
       212   -2013.9597    122   -2342.0304    032   -9748.3401
       203   -1061.9809    113     809.2333    023   -3889.7182
       104     811.6473    014   -3813.8317    005   -1925.8767
 -----------------------------------------------------------------
 -----------------------------------------------------------------
                 RPA Excited-State Multipoles, State    5   
                  LMN = < X^L Y^M Z^N >
 -----------------------------------------------------------------
    Charge (ESU x 10^10)
                 0.0000
    Dipole Moment (Debye)
         X     -20.5398      Y     -13.5479      Z       4.6636
       Tot      25.0435
    Quadrupole Moments (Debye-Ang)
        XX    -126.3915     XY     -59.5535     YY    -189.9045
        XZ     -15.9385     YZ      24.2799     ZZ    -126.4713
    Octopole Moments (Debye-Ang^2)
       XXX    -223.8139    XXY    -657.9655    XYY    -424.3952
       YYY   -1392.3045    XXZ      20.6277    XYZ     -15.6885
       YYZ      99.8030    XZZ      37.5081    YZZ    -293.1656
       ZZZ    -140.8326
    Hexadecapole Moments (Debye-Ang^3)
      XXXX   -5214.2661   XXXY   -2084.0447   XXYY   -3971.2425
      XYYY   -3755.9179   YYYY  -12823.8256   XXXZ     332.9168
      XXYZ     -97.7656   XYYZ     194.0335   YYYZ     153.0103
      XXZZ   -1052.6031   XYZZ    -603.3545   YYZZ   -1830.3392
      XZZZ     549.9641   YZZZ    -697.9669   ZZZZ   -1284.4122
    5th-Order Moments (Debye-Ang^4)
       500    2514.5564    410  -15148.1689    320  -12223.6564
       230  -23080.8858    140  -26562.1597    050 -104567.7330
       401     -88.1258    311    1240.4160    221    -875.9681
       131    1082.5470    041   -2748.8281    302    1032.8221
       212   -2010.9563    122   -2489.3702    032  -10029.4628
       203    -997.5210    113     760.9532    023   -3924.7518
       104     749.7777    014   -3824.3296    005   -1891.7530
 -----------------------------------------------------------------
 -----------------------------------------------------------------
                 RPA Excited-State Multipoles, State    6   
                  LMN = < X^L Y^M Z^N >
 -----------------------------------------------------------------
    Charge (ESU x 10^10)
                 0.0000
    Dipole Moment (Debye)
         X     -13.0121      Y      -8.3529      Z       3.0180
       Tot      15.7542
    Quadrupole Moments (Debye-Ang)
        XX    -139.5697     XY     -46.3982     YY    -160.0096
        XZ     -10.2000     YZ      25.6519     ZZ    -127.1979
    Octopole Moments (Debye-Ang^2)
       XXX    -178.9983    XXY    -688.5919    XYY    -388.3835
       YYY   -1199.7028    XXZ      -0.7869    XYZ       4.6785
       YYZ     137.7519    XZZ      56.6826    YZZ    -284.3488
       ZZZ    -148.2547
    Hexadecapole Moments (Debye-Ang^3)
      XXXX   -5425.7993   XXXY   -2101.1702   XXYY   -4141.7302
      XYYY   -3669.6480   YYYY  -11622.0284   XXXZ     382.6006
      XXYZ    -128.9371   XYYZ     293.3290   YYYZ     451.4928
      XXZZ   -1076.4006   XYZZ    -553.2376   YYZZ   -1765.7021
      XZZZ     573.7274   YZZZ    -701.8385   ZZZZ   -1292.7356
    5th-Order Moments (Debye-Ang^4)
       500    3018.9116    410  -15762.0225    320  -12663.5315
       230  -23961.8966    140  -26175.3374    050  -96660.3455
       401    -404.4758    311    1339.6898    221    -848.1166
       131    1696.0910    041    -646.7590    302    1202.8702
       212   -2023.9325    122   -2295.5613    032   -9598.1182
       203   -1084.6467    113     830.9744    023   -3851.9918
       104     834.9184    014   -3808.6319    005   -1938.8615
 -----------------------------------------------------------------
 -----------------------------------------------------------------
                 RPA Excited-State Multipoles, State    7   
                  LMN = < X^L Y^M Z^N >
 -----------------------------------------------------------------
    Charge (ESU x 10^10)
                 0.0000
    Dipole Moment (Debye)
         X      -8.9211      Y      -5.9167      Z       1.9938
       Tot      10.8889
    Quadrupole Moments (Debye-Ang)
        XX    -103.2259     XY      -6.3151     YY    -134.8133
        XZ     -16.0774     YZ      14.4697     ZZ    -130.2369
    Octopole Moments (Debye-Ang^2)
       XXX     -59.4908    XXY    -478.2659    XYY    -121.1632
       YYY   -1021.5018    XXZ      -6.5791    XYZ     -26.3860
       YYZ      60.6155    XZZ      47.2101    YZZ    -301.4967
       ZZZ    -148.4428
    Hexadecapole Moments (Debye-Ang^3)
      XXXX   -4822.3015   XXXY   -1297.4690   XXYY   -2898.7764
      XYYY   -2021.8394   YYYY  -10504.2173   XXXZ     316.6620
      XXYZ    -198.9894   XYYZ     116.0381   YYYZ     -31.9405
      XXZZ   -1068.9254   XYZZ    -579.0456   YYZZ   -1857.0867
      XZZZ     562.2170   YZZZ    -722.2078   ZZZZ   -1302.7501
    5th-Order Moments (Debye-Ang^4)
       500    5036.7726    410  -12368.8353    320   -7823.0121
       230  -16708.0100    140  -16376.1305    050  -90174.8149
       401    -522.4252    311     993.4482    221   -1330.1937
       131     660.5019    041   -3615.1334    302    1168.1670
       212   -1997.8166    122   -2383.2024    032  -10106.8479
       203   -1057.9211    113     781.3362    023   -4013.5525
       104     786.2579    014   -3876.9752    005   -1934.0559
 -----------------------------------------------------------------
 -----------------------------------------------------------------
                 RPA Excited-State Multipoles, State    8   
                  LMN = < X^L Y^M Z^N >
 -----------------------------------------------------------------
    Charge (ESU x 10^10)
                 0.0000
    Dipole Moment (Debye)
         X     -22.7120      Y     -17.8987      Z       3.6276
       Tot      29.1438
    Quadrupole Moments (Debye-Ang)
        XX    -124.1072     XY     -57.5125     YY    -205.7554
        XZ     -13.5299     YZ      19.8463     ZZ    -128.8121
    Octopole Moments (Debye-Ang^2)
       XXX    -259.0429    XXY    -694.6441    XYY    -436.0989
       YYY   -1462.6934    XXZ      17.0935    XYZ      -3.7768
       YYZ      91.1724    XZZ      41.0379    YZZ    -301.5508
       ZZZ    -145.7822
    Hexadecapole Moments (Debye-Ang^3)
      XXXX   -5102.9570   XXXY   -2036.6377   XXYY   -4061.1602
      XYYY   -3831.8553   YYYY  -13172.6999   XXXZ     341.5768
      XXYZ    -127.4754   XYYZ     212.4556   YYYZ     109.5144
      XXZZ   -1063.6419   XYZZ    -589.8699   YYZZ   -1858.1321
      XZZZ     561.2167   YZZZ    -715.0430   ZZZZ   -1297.9084
    5th-Order Moments (Debye-Ang^4)
       500    1681.1579    410  -15638.0559    320  -12386.7351
       230  -23551.3712    140  -27049.7107    050 -106340.6671
       401     -58.2606    311    1354.1435    221    -902.7548
       131    1175.7869    041   -2905.8752    302    1034.8908
       212   -2068.2573    122   -2460.9735    032  -10138.7253
       203   -1017.7691    113     803.2352    023   -3970.6611
       104     775.8902    014   -3865.9375    005   -1926.2672
 -----------------------------------------------------------------
 -----------------------------------------------------------------
                 RPA Excited-State Multipoles, State    9   
                  LMN = < X^L Y^M Z^N >
 -----------------------------------------------------------------
    Charge (ESU x 10^10)
                 0.0000
    Dipole Moment (Debye)
         X     -24.6801      Y     -21.3541      Z       2.9700
       Tot      32.7709
    Quadrupole Moments (Debye-Ang)
        XX    -120.3635     XY     -59.8115     YY    -217.3756
        XZ     -14.6934     YZ      19.4480     ZZ    -127.8880
    Octopole Moments (Debye-Ang^2)
       XXX    -287.9186    XXY    -708.8463    XYY    -461.8039
       YYY   -1531.5769    XXZ      21.9234    XYZ      -7.5325
       YYZ      86.6531    XZZ      37.0041    YZZ    -303.3123
       ZZZ    -147.1182
    Hexadecapole Moments (Debye-Ang^3)
      XXXX   -5012.2950   XXXY   -2081.1179   XXYY   -4147.3692
      XYYY   -3987.4553   YYYY  -13535.3885   XXXZ     295.8353
      XXYZ    -129.3469   XYYZ     207.5997   YYYZ     107.0342
      XXZZ   -1045.4637   XYZZ    -588.9056   YYZZ   -1858.9827
      XZZZ     557.8405   YZZZ    -715.6381   ZZZZ   -1296.1575
    5th-Order Moments (Debye-Ang^4)
       500    1008.1941    410  -15763.4984    320  -12602.9402
       230  -24033.9708    140  -28045.4739    050 -108542.7639
       401     158.6544    311    1345.7316    221    -928.1908
       131    1110.5551    041   -2944.6043    302     953.2112
       212   -2085.1889    122   -2490.6877    032  -10156.5600
       203   -1005.4827    113     795.8969    023   -3968.4035
       104     768.9774    014   -3869.2033    005   -1938.6999
 -----------------------------------------------------------------
 -----------------------------------------------------------------
                 RPA Excited-State Multipoles, State   10   
                  LMN = < X^L Y^M Z^N >
 -----------------------------------------------------------------
    Charge (ESU x 10^10)
                 0.0000
    Dipole Moment (Debye)
         X      -8.2139      Y      -5.4259      Z       1.8449
       Tot      10.0155
    Quadrupole Moments (Debye-Ang)
        XX    -103.0880     XY      -3.9099     YY    -131.6623
        XZ     -15.7623     YZ      14.1849     ZZ    -130.4557
    Octopole Moments (Debye-Ang^2)
       XXX     -53.4849    XXY    -474.1711    XYY    -109.9474
       YYY   -1002.9432    XXZ      -7.7786    XYZ     -25.8449
       YYZ      60.1755    XZZ      47.9754    YZZ    -301.7318
       ZZZ    -148.9180
    Hexadecapole Moments (Debye-Ang^3)
      XXXX   -4826.2546   XXXY   -1279.1892   XXYY   -2875.7025
      XYYY   -1968.8227   YYYY  -10403.0015   XXXZ     319.9099
      XXYZ    -201.4688   XYYZ     116.9474   YYYZ     -31.5080
      XXZZ   -1071.2454   XYZZ    -577.8347   YYZZ   -1857.0136
      XZZZ     563.8286   YZZZ    -722.6777   ZZZZ   -1304.0690
    5th-Order Moments (Debye-Ang^4)
       500    5093.5181    410  -12346.4770    320   -7739.0196
       230  -16581.2497    140  -16113.7620    050  -89629.9923
       401    -538.3004    311     997.8584    221   -1336.8357
       131     662.3563    041   -3601.1239    302    1174.5478
       212   -2002.7314    122   -2381.2970    032  -10103.3154
       203   -1062.1498    113     785.2108    023   -4011.7153
       104     789.7969    014   -3879.3880    005   -1937.2080
 -----------------------------------------------------------------
 -----------------------------------------------------------------
                 RPA Excited-State Multipoles, State   11   
                  LMN = < X^L Y^M Z^N >
 -----------------------------------------------------------------
    Charge (ESU x 10^10)
                 0.0000
    Dipole Moment (Debye)
         X     -22.5199      Y     -15.8925      Z       4.5706
       Tot      27.9394
    Quadrupole Moments (Debye-Ang)
        XX    -120.8135     XY     -58.8393     YY    -198.4867
        XZ     -16.4053     YZ      22.1237     ZZ    -127.1750
    Octopole Moments (Debye-Ang^2)
       XXX    -264.7151    XXY    -677.5818    XYY    -434.7945
       YYY   -1438.4812    XXZ      25.9156    XYZ     -10.7531
       YYZ      93.1969    XZZ      36.4579    YZZ    -298.1086
       ZZZ    -142.0702
    Hexadecapole Moments (Debye-Ang^3)
      XXXX   -5067.1081   XXXY   -2068.8780   XXYY   -4019.7328
      XYYY   -3812.9348   YYYY  -13080.4677   XXXZ     311.2472
      XXYZ    -109.6108   XYYZ     201.2050   YYYZ     113.8758
      XXZZ   -1048.8541   XYZZ    -597.9031   YYZZ   -1849.5993
      XZZZ     550.9086   YZZZ    -707.7833   ZZZZ   -1289.9816
    5th-Order Moments (Debye-Ang^4)
       500    1659.7156    410  -15393.4316    320  -12349.4136
       230  -23372.9244    140  -26947.5383    050 -106075.9148
       401      45.8577    311    1291.9743    221    -891.5349
       131    1112.3661    041   -2958.3211    302     989.8829
       212   -2042.6744    122   -2480.4223    032  -10123.0141
       203    -988.3035    113     782.0584    023   -3960.1599
       104     753.3625    014   -3850.6799    005   -1904.0171
 -----------------------------------------------------------------
 -----------------------------------------------------------------
                 RPA Excited-State Multipoles, State   12   
                  LMN = < X^L Y^M Z^N >
 -----------------------------------------------------------------
    Charge (ESU x 10^10)
                 0.0000
    Dipole Moment (Debye)
         X     -13.8586      Y      -7.5796      Z       3.9453
       Tot      16.2811
    Quadrupole Moments (Debye-Ang)
        XX    -129.8563     XY     -44.3940     YY    -164.0788
        XZ     -14.0408     YZ      22.0798     ZZ    -128.1220
    Octopole Moments (Debye-Ang^2)
       XXX    -159.6056    XXY    -620.9262    XYY    -337.7584
       YYY   -1240.7808    XXZ      11.8398    XYZ     -10.0112
       YYZ      95.2067    XZZ      46.9365    YZZ    -293.1898
       ZZZ    -145.3076
    Hexadecapole Moments (Debye-Ang^3)
      XXXX   -5267.8094   XXXY   -1951.3085   XXYY   -3804.1771
      XYYY   -3336.9475   YYYY  -11992.8902   XXXZ     349.4695
      XXYZ    -119.7660   XYYZ     213.4746   YYYZ     145.4807
      XXZZ   -1066.4011   XYZZ    -581.9840   YYZZ   -1827.8115
      XZZZ     560.3187   YZZZ    -710.8980   ZZZZ   -1295.8060
    5th-Order Moments (Debye-Ang^4)
       500    3425.8446    410  -14695.4444    320  -11431.7080
       230  -22033.0265    140  -24216.1812    050  -99629.7156
       401    -218.2233    311    1244.6376    221    -949.2851
       131    1182.8349    041   -2672.5457    302    1119.1844
       212   -2002.8078    122   -2382.6508    032   -9969.2985
       203   -1032.7184    113     790.8159    023   -3962.7469
       104     789.8224    014   -3846.4916    005   -1925.6324
 -----------------------------------------------------------------
 -----------------------------------------------------------------
                 RPA Excited-State Multipoles, State   13   
                  LMN = < X^L Y^M Z^N >
 -----------------------------------------------------------------
    Charge (ESU x 10^10)
                -0.0000
    Dipole Moment (Debye)
         X     -22.0040      Y     -17.5143      Z       3.4173
       Tot      28.3303
    Quadrupole Moments (Debye-Ang)
        XX    -121.5715     XY     -51.9409     YY    -198.9880
        XZ     -13.0322     YZ      19.7891     ZZ    -129.1772
    Octopole Moments (Debye-Ang^2)
       XXX    -262.4200    XXY    -702.3661    XYY    -425.0260
       YYY   -1425.8617    XXZ      12.7239    XYZ      -0.7059
       YYZ      95.7458    XZZ      44.8997    YZZ    -301.3378
       ZZZ    -147.9129
    Hexadecapole Moments (Debye-Ang^3)
      XXXX   -5070.9038   XXXY   -1993.0026   XXYY   -4054.2698
      XYYY   -3759.7334   YYYY  -12900.3912   XXXZ     348.1464
      XXYZ    -136.8780   XYYZ     230.6146   YYYZ     160.9656
      XXZZ   -1067.9148   XYZZ    -577.8545   YYZZ   -1847.7292
      XZZZ     566.7686   YZZZ    -717.0068   ZZZZ   -1302.1088
    5th-Order Moments (Debye-Ang^4)
       500    1610.9237    410  -15798.9565    320  -12403.4670
       230  -23589.7964    140  -26715.6680    050 -104518.5647
       401    -141.0720    311    1366.9800    221    -912.4221
       131    1283.5403    041   -2510.5692    302    1073.0283
       212   -2077.4489    122   -2426.7187    032  -10064.6907
       203   -1043.6673    113     816.0604    023   -3959.5949
       104     797.9570    014   -3868.9975    005   -1942.7505
 -----------------------------------------------------------------
 -----------------------------------------------------------------
                 RPA Excited-State Multipoles, State   14   
                  LMN = < X^L Y^M Z^N >
 -----------------------------------------------------------------
    Charge (ESU x 10^10)
                 0.0000
    Dipole Moment (Debye)
         X     -19.6906      Y     -14.2932      Z       3.8122
       Tot      24.6282
    Quadrupole Moments (Debye-Ang)
        XX    -134.5726     XY     -47.8023     YY    -203.8128
        XZ     -16.9464     YZ      21.1043     ZZ    -145.8484
    Octopole Moments (Debye-Ang^2)
       XXX    -220.7450    XXY    -690.4032    XYY    -364.9032
       YYY   -1534.6805    XXZ       6.1068    XYZ     -16.1863
       YYZ      78.2929    XZZ      36.4048    YZZ    -363.9046
       ZZZ    -174.7300
    Hexadecapole Moments (Debye-Ang^3)
      XXXX   -5602.3412   XXXY   -2050.4534   XXYY   -4139.4613
      XYYY   -3497.7704   YYYY  -14148.1887   XXXZ     378.7047
      XXYZ    -160.8029   XYYZ     213.2209   YYYZ       0.7347
      XXZZ   -1190.3219   XYZZ    -631.4215   YYZZ   -2192.7956
      XZZZ     605.1208   YZZZ    -827.0147   ZZZZ   -1554.6586
    5th-Order Moments (Debye-Ang^4)
       500    2400.5248    410  -16480.9403    320  -12225.3167
       230  -24330.1509    140  -25897.7144    050 -116393.2665
       401    -423.6488    311    1332.2243    221   -1236.5076
       131    1230.9895    041   -3919.0043    302    1073.9476
       212   -2505.5642    122   -2648.3489    032  -12082.7024
       203   -1218.3998    113     917.0774    023   -4611.5439
       104     840.5533    014   -4821.6694    005   -2565.1334
 -----------------------------------------------------------------
 Total job time:  10379.30s(wall), 148616.03s(cpu) 
 Fri Jan 31 04:00:43 2025

        *************************************************************
        *                                                           *
        *  Thank you very much for using Q-Chem.  Have a nice day.  *
        *                                                           *
        *************************************************************


