
Running Job 1 of 1 Pelargonidin_Q4_tddft_full.in
qchem Pelargonidin_Q4_tddft_full.in_1449549.0 /data/brussel/103/vsc10365/activedata/TDDFTAnthocyanidines/qchem1449549/ 1
/apps/brussel/RL8/skylake/software/Q-Chem/6.2.0/exe/qcprog.exe_s Pelargonidin_Q4_tddft_full.in_1449549.0 /data/brussel/103/vsc10365/activedata/TDDFTAnthocyanidines/qchem1449549/
                  Welcome to Q-Chem
     A Quantum Leap Into The Future Of Chemistry


 Q-Chem 6.2, Q-Chem, Inc., Pleasanton, CA (2024)

 License issued to: SRG Prof. Dr. Frank De Proft, Vrije Universiteit Brussel

 E. Epifanovsky,  A. T. B. Gilbert,  Xintian Feng,  Joonho Lee,  Yuezhi Mao,  
 N. Mardirossian,  P. Pokhilko,  A. White,  M. Wormit,  M. P. Coons,  
 A. L. Dempwolff,  Zhengting Gan,  D. Hait,  P. R. Horn,  L. D. Jacobson,  
 I. Kaliman,  J. Kussmann,  A. W. Lange,  Ka Un Lao,  D. S. Levine,  Jie Liu,  
 S. C. McKenzie,  A. F. Morrison,  K. D. Nanda,  F. Plasser,  D. R. Rehn,  
 M. L. Vidal,  Zhi-Qiang You,  Ying Zhu,  Huseyin Aksu,  B. Alam,  
 B. Albrecht,  A. Aldossary,  E. Alguire,  J. H. Andersen,  
 J. E. Arias-Martinez,  V. Athavale,  D. Barton,  K. Begam,  A. Behn,  
 N. Bellonzi,  Y. A. Bernard,  E. J. Berquist,  H. Burton,  A. Carreras,  
 K. Carter-Fenk,  Mathew Chow,  Romit Chakraborty,  Chandrima Chakravarty,  
 Junhan Chen,  A. D. Chien,  K. D. Closser,  V. Cofer-Shabica,  L. Cunha,  
 S. Dasgupta,  Jia Deng,  Joseph Dickinson,  M. de Wergifosse,  
 M. Diedenhofen,  Hainam Do,  Wenjie Dou,  S. Ehlert,  Po-Tung Fang,  
 S. Fatehi,  Qingguo Feng,  Jonathan Fetherolf,  T. Friedhoff,  
 Thomas Froitzheim,  Sarai Folkestad,  B. Ganoe,  J. Gayvert,  Qinghui Ge,  
 G. Gidofalvi,  M. Gimferrer,  M. Goldey,  Montgomery Gray,  J. Gomes,  
 C. Gonzalez-Espinoza,  S. Gulania,  A. Gunina,  J. A. Gyamfi,  
 M. W. D. Hanson-Heine,  P. H. P. Harbach,  A. W. Hauser,  M. F. Herbst,  
 M. Hernandez Vera,  M. Hodecker,  Z. C. Holden,  S. Houck,  Xunkun Huang,  
 Kerwin Hui,  B. C. Huynh,  K. Ikeda,  M. Ivanov,  Nayanthara K. Jayadev,  
 Hyunjun Ji,  Zuxin Jin,  Hanjie Jiang,  Subrata Jana,  B. Kaduk,  
 S. Kaehler,  R. Kang,  K. Khistyaev,  Jaehoon Kim,  Yongbin Kim,  
 P. Klunzinger,  Z. Koczor-Benda,  Joong Hoon Koh,  D. Kosenkov,  
 Saikiran Kotaru,  L. Koulias,  T. Kowalczyk,  C. M. Krauter,  K. Kue,  
 A. Kunitsa,  T. Kus,  A. Landau,  K. V. Lawler,  D. Lefrancois,  S. Lehtola,  
 Rain Li,  Shaozhi Li,  Tao E. Li,  Yi-Pei Li,  Jiashu Liang,  M. Liebenthal,  
 Hung-Hsuan Lin,  You-Sheng Lin,  Fenglai Liu,  Kuan-Yu Liu,  Xiao Liu,  
 M. Loipersberger,  A. Luenser,  C. Malbon,  Aniket Mandal,  Manisha,  
 A. Manjanath,  P. Manohar,  E. Mansoor,  S. F. Manzer,  Shan-Ping Mao,  
 A. V. Marenich,  T. Markovich,  S. Mason,  F. Matz,  S. A. Maurer,  
 Samuel May,  Alexandra McIsaac,  P. F. McLaughlin,  M. F. S. J. Menger,  
 J.-M. Mewes,  S. A. Mewes,  P. Morgante,  Mohammad Mostafanejad,  
 Madhubani Mukherjee,  J. W. Mullinax,  Quyen Nguyen,  Avik Kumar Ojha,  
 K. J. Oosterbaan,  Eno Paenurk,  Xiaoliang Pan,  G. Paran,  V. Parravicini,  
 Alexander C. Paul,  Suranjan K. Paul,  F. Pavosevic,  Zheng Pei,  S. Prager,  
 E. I. Proynov,  E. Ramos,  B. Rana,  A. E. Rask,  A. Rettig,  R. M. Richard,  
 F. Rob,  E. Rossomme,  T. Scheele,  M. Scheurer,  M. Schneider,  
 P. E. Schneider,  Tim K. Schramm,  N. Sergueev,  S. M. Sharada,  
 Hengyuan Shen,  W. Skomorowski,  D. W. Small,  C. J. Stein,  
 Alistair J. Sterling,  Yingli Su,  Yu-Chuan Su,  E. J. Sundstrom,  
 J. Talbot,  Zhen Tao,  J. Thirman,  Hung-Yi Tsai,  T. Tsuchimochi,  
 N. M. Tubman,  C. Utku,  S. P. Veccham,  O. Vydrov,  Rahel Weiss,  
 J. Wenzel,  Jonathan Wong,  J. Witte,  H. Wu,  Yanze Wu,  A. Yamada,  
 Chou-Hsun Yang,  Kun Yao,  S. Yeganeh,  S. R. Yost,  Qi Yu,  A. Zech,  
 F. Zeller,  Chongxiao Zhao,  Igor Ying Zhang,  Xing Zhang,  Yu Zhang,  
 D. Zuev,  A. Aspuru-Guzik,  A. T. Bell,  N. A. Besley,  K. B. Bravaya,  
 B. R. Brooks,  D. Casanova,  Jeng-Da Chai,  Hsing-Ta Chen,  S. Coriani,  
 C. J. Cramer,  A. E. DePrince, III,  R. A. DiStasio Jr.,  A. Dreuw,  
 B. D. Dunietz,  T. R. Furlani,  W. A. Goddard III,  S. Grimme,  
 S. Hammes-Schiffer,  T. Head-Gordon,  W. J. Hehre,  Chao-Ping Hsu,  
 T.-C. Jagau,  Yousung Jung,  A. Klamt,  Jing Kong,  D. S. Lambrecht,  
 Xiangyuan Li,  WanZhen Liang,  N. J. Mayhall,  C. W. McCurdy,  J. B. Neaton,  
 T. Neudecker,  C. Ochsenfeld,  J. A. Parkhill,  R. Peverati,  
 V. A. Rassolov,  Haisheng Ren,  Yihan Shao,  L. V. Slipchenko,  
 R. P. Steele,  J. E. Subotnik,  A. J. W. Thom,  A. Tkatchenko,  
 D. G. Truhlar,  T. Van Voorhis,  Fan Wang,  T. A. Wesolowski,  K. B. Whaley,  
 H. L. Woodcock III,  P. M. Zimmerman,  S. Faraji,  P. M. W. Gill,  
 M. Head-Gordon,  J. M. Herbert,  A. I. Krylov

 Contributors to earlier versions of Q-Chem not listed above: 
 R. D. Adamson,  B. Austin,  R. Baer,  J. Baker,  G. J. O. Beran,  
 K. Brandhorst,  S. T. Brown,  E. F. C. Byrd,  Arup K. Chakraborty,  
 G. K. L. Chan,  Chun-Min Chang,  Yunqing Chen,  C.-L. Cheng,  
 Siu Hung Chien,  D. M. Chipman,  D. L. Crittenden,  H. Dachsel,  
 R. J. Doerksen,  A. D. Dutoi,  R. G. Edgar,  J. Fosso-Tande,  
 L. Fusti-Molnar,  D. Ghosh,  A. Ghysels,  A. Golubeva-Zadorozhnaya,  
 J. Gonthier,  M. S. Gordon,  S. R. Gwaltney,  G. Hawkins,  J. E. Herr,  
 A. Heyden,  S. Hirata,  E. G. Hohenstein,  G. Kedziora,  F. J. Keil,  
 C. Kelley,  Jihan Kim,  R. A. King,  R. Z. Khaliullin,  P. P. Korambath,  
 W. Kurlancheek,  A. Laurent,  A. M. Lee,  M. S. Lee,  S. V. Levchenko,  
 Ching Yeh Lin,  D. Liotard,  E. Livshits,  R. C. Lochan,  I. Lotan,  
 L. A. Martinez-Martinez,  P. E. Maslen,  N. Nair,  D. P. O'Neill,  
 D. Neuhauser,  E. Neuscamman,  C. M. Oana,  R. Olivares-Amaya,  R. Olson,  
 T. M. Perrine,  B. Peters,  P. A. Pieniazek,  A. Prociuk,  Y. M. Rhee,  
 J. Ritchie,  M. A. Rohrdanz,  E. Rosta,  N. J. Russ,  H. F. Schaefer III,  
 M. W. Schmidt,  N. E. Schultz,  S. Sharma,  N. Shenvi,  C. D. Sherrill,  
 A. C. Simmonett,  A. Sodt,  T. Stein,  D. Stuck,  K. S. Thanthiriwatte,  
 V. Vanovschi,  L. Vogt,  Tao Wang,  A. Warshel,  M. A. Watson,  
 C. F. Williams,  Q. Wu,  X. Xu,  Jun Yang,  W. Zhang,  Yan Zhao

   Please cite Q-Chem as follows:
  "Software for the frontiers of quantum chemistry:
   An overview of developments in the Q-Chem 5 package"
   J. Chem. Phys. 155, 084801 (2021)
   https://doi.org/10.1063/5.0055522 (open access)

 Q-Chem 6.2.0 for Intel X86 EM64T Linux

 Parts of Q-Chem use Armadillo 9.900.5 (Nocturnal Misbehaviour).
 http://arma.sourceforge.net/

 Q-Chem begins on Thu Jan 30 23:38:04 2025  

 Host: 
0

     Scratch files written to /data/brussel/103/vsc10365/activedata/TDDFTAnthocyanidines/qchem1449549//
 May224 |scratch|qcdevops|jenkins|workspace|build_RNUM -1
 Processing $rem in /apps/brussel/RL8/skylake/software/Q-Chem/6.2.0/config/preferences:
 Processing $rem in /user/brussel/103/vsc10365/.qchemrc:
 Symmetry turned off for PCM/SM12/SMD calculation

 Checking the input file for inconsistencies... 	...done.

--------------------------------------------------------------
User input:
--------------------------------------------------------------
$comment
TDDFT calculation of pelargonidin Q4 structure
nprocs=16
mem=64gb
$end

$molecule
0 1
C   -4.5552329    0.4480342   -1.0310671
C   -4.6816914   -0.4109288    0.1270995
C   -3.7675898   -0.4013623    1.1341965
C   -2.6297774    0.4717426    1.0822966
C   -2.5192898    1.3143204   -0.0649313
C   -3.4236150    1.3203269   -1.0882955
C   -1.6511989    0.5434821    2.0463715
C   -0.5691741    1.4246532    1.9203796
C   -0.4808956    2.2436348    0.8093293
O   -1.4549872    2.1604817   -0.1315513
C    0.5530444    3.2075762    0.4679146
C    1.3875574    3.7914204    1.4364441
C    2.3442986    4.7252459    1.0809749
C    2.4988473    5.0923887   -0.2550112
C    1.6829020    4.5241754   -1.2338214
C    0.7222454    3.6007663   -0.8735187
O   -5.4282631    0.4188790   -1.9533609
H   -5.5378614   -1.0736553    0.1776290
O   -3.8526308   -1.1930931    2.2402241
H   -3.2950016    1.9791276   -1.9362925
H   -1.6974580   -0.0932629    2.9214308
O    0.4166987    1.4666555    2.8673442
H    1.2755248    3.5342842    2.4772591
H    2.9734304    5.1784720    1.8377929
O    3.4313867    6.0039495   -0.6581021
H    1.8121380    4.8112229   -2.2691645
H    0.1002597    3.1666787   -1.6428906
H   -4.6486075   -1.7422595    2.1913081
H    0.2304956    0.8167948    3.5598012
H    3.9306756    6.3291289    0.1050708
$end

$rem
BASIS  =  def2-ma-TZVP
MEM_STATIC  =  2000
MEM_TOTAL  =  64000
METHOD  =  CAM-B3LYP
SOLVENT_METHOD = pcm
SYMMETRY_IGNORE  =  1
CIS_N_ROOTS = 7
CIS_SINGLETS = true
CIS_TRIPLETS = true
CISTR_PRINT = true
RPA = true
PRINT_ORBITALS = true
SCF_PRINT = 1
SCF_FINAL_PRINT = 2
PRINT_GENERAL_BASIS = true
CISTR_PRINT = true
PRINT_RADII_GYRE = true
MULTIPOLE_ORDER = 5
CIS_AMPL_PRINT = 5
CIS_AMPL_ANAL = true
STATE_ANALYSIS = true
$end

$pcm
Theory   CPCM
Method   SWIG
Solver   Inversion
Radii    Bondi
$end

$solvent
Dielectric         78.39
OpticalDielectric  1.777849
$end


--------------------------------------------------------------
 ----------------------------------------------------------------
             Standard Nuclear Orientation (Angstroms)
    I     Atom           X                Y                Z
 ----------------------------------------------------------------
    1      C      -4.5552329000     0.4480342000    -1.0310671000
    2      C      -4.6816914000    -0.4109288000     0.1270995000
    3      C      -3.7675898000    -0.4013623000     1.1341965000
    4      C      -2.6297774000     0.4717426000     1.0822966000
    5      C      -2.5192898000     1.3143204000    -0.0649313000
    6      C      -3.4236150000     1.3203269000    -1.0882955000
    7      C      -1.6511989000     0.5434821000     2.0463715000
    8      C      -0.5691741000     1.4246532000     1.9203796000
    9      C      -0.4808956000     2.2436348000     0.8093293000
   10      O      -1.4549872000     2.1604817000    -0.1315513000
   11      C       0.5530444000     3.2075762000     0.4679146000
   12      C       1.3875574000     3.7914204000     1.4364441000
   13      C       2.3442986000     4.7252459000     1.0809749000
   14      C       2.4988473000     5.0923887000    -0.2550112000
   15      C       1.6829020000     4.5241754000    -1.2338214000
   16      C       0.7222454000     3.6007663000    -0.8735187000
   17      O      -5.4282631000     0.4188790000    -1.9533609000
   18      H      -5.5378614000    -1.0736553000     0.1776290000
   19      O      -3.8526308000    -1.1930931000     2.2402241000
   20      H      -3.2950016000     1.9791276000    -1.9362925000
   21      H      -1.6974580000    -0.0932629000     2.9214308000
   22      O       0.4166987000     1.4666555000     2.8673442000
   23      H       1.2755248000     3.5342842000     2.4772591000
   24      H       2.9734304000     5.1784720000     1.8377929000
   25      O       3.4313867000     6.0039495000    -0.6581021000
   26      H       1.8121380000     4.8112229000    -2.2691645000
   27      H       0.1002597000     3.1666787000    -1.6428906000
   28      H      -4.6486075000    -1.7422595000     2.1913081000
   29      H       0.2304956000     0.8167948000     3.5598012000
   30      H       3.9306756000     6.3291289000     0.1050708000
 ----------------------------------------------------------------
 Nuclear Repulsion Energy =        1429.07085264 hartrees
 There are       70 alpha and       70 beta electrons
 Requested basis set is def2-ma-TZVP
 Basis set in general basis input format:
-----------------------------------------------------------------------
$basis
C    0
S    6    1.000000
   1.35753497E+04    2.22458144E-04 
   2.03523337E+03    1.72327383E-03 
   4.63225624E+02    8.92557153E-03 
   1.31200196E+02    3.57279845E-02 
   4.28530159E+01    1.10762599E-01 
   1.55841858E+01    2.42956276E-01 
S    2    1.000000
   6.20671385E+00    4.14402634E-01 
   2.57648965E+00    2.37449687E-01 
S    1    1.000000
   5.76963394E-01    1.00000000E+00 
S    1    1.000000
   2.29728314E-01    1.00000000E+00 
S    1    1.000000
   9.51644400E-02    1.00000000E+00 
S    1    1.000000
   4.84754014E-02    1.00000000E+00 
P    4    1.000000
   3.46972322E+01    5.33336578E-03 
   7.95826228E+00    3.58641091E-02 
   2.37808269E+00    1.42158733E-01 
   8.14332082E-01    3.42704718E-01 
P    1    1.000000
   2.88875473E-01    4.64458224E-01 
P    1    1.000000
   1.00568237E-01    2.49557899E-01 
D    1    1.000000
   1.09700000E+00    1.00000000E+00 
D    1    1.000000
   3.18000000E-01    1.00000000E+00 
F    1    1.000000
   7.61000000E-01    1.00000000E+00 
****
C    0
S    6    1.000000
   1.35753497E+04    2.22458144E-04 
   2.03523337E+03    1.72327383E-03 
   4.63225624E+02    8.92557153E-03 
   1.31200196E+02    3.57279845E-02 
   4.28530159E+01    1.10762599E-01 
   1.55841858E+01    2.42956276E-01 
S    2    1.000000
   6.20671385E+00    4.14402634E-01 
   2.57648965E+00    2.37449687E-01 
S    1    1.000000
   5.76963394E-01    1.00000000E+00 
S    1    1.000000
   2.29728314E-01    1.00000000E+00 
S    1    1.000000
   9.51644400E-02    1.00000000E+00 
S    1    1.000000
   4.84754014E-02    1.00000000E+00 
P    4    1.000000
   3.46972322E+01    5.33336578E-03 
   7.95826228E+00    3.58641091E-02 
   2.37808269E+00    1.42158733E-01 
   8.14332082E-01    3.42704718E-01 
P    1    1.000000
   2.88875473E-01    4.64458224E-01 
P    1    1.000000
   1.00568237E-01    2.49557899E-01 
D    1    1.000000
   1.09700000E+00    1.00000000E+00 
D    1    1.000000
   3.18000000E-01    1.00000000E+00 
F    1    1.000000
   7.61000000E-01    1.00000000E+00 
****
C    0
S    6    1.000000
   1.35753497E+04    2.22458144E-04 
   2.03523337E+03    1.72327383E-03 
   4.63225624E+02    8.92557153E-03 
   1.31200196E+02    3.57279845E-02 
   4.28530159E+01    1.10762599E-01 
   1.55841858E+01    2.42956276E-01 
S    2    1.000000
   6.20671385E+00    4.14402634E-01 
   2.57648965E+00    2.37449687E-01 
S    1    1.000000
   5.76963394E-01    1.00000000E+00 
S    1    1.000000
   2.29728314E-01    1.00000000E+00 
S    1    1.000000
   9.51644400E-02    1.00000000E+00 
S    1    1.000000
   4.84754014E-02    1.00000000E+00 
P    4    1.000000
   3.46972322E+01    5.33336578E-03 
   7.95826228E+00    3.58641091E-02 
   2.37808269E+00    1.42158733E-01 
   8.14332082E-01    3.42704718E-01 
P    1    1.000000
   2.88875473E-01    4.64458224E-01 
P    1    1.000000
   1.00568237E-01    2.49557899E-01 
D    1    1.000000
   1.09700000E+00    1.00000000E+00 
D    1    1.000000
   3.18000000E-01    1.00000000E+00 
F    1    1.000000
   7.61000000E-01    1.00000000E+00 
****
C    0
S    6    1.000000
   1.35753497E+04    2.22458144E-04 
   2.03523337E+03    1.72327383E-03 
   4.63225624E+02    8.92557153E-03 
   1.31200196E+02    3.57279845E-02 
   4.28530159E+01    1.10762599E-01 
   1.55841858E+01    2.42956276E-01 
S    2    1.000000
   6.20671385E+00    4.14402634E-01 
   2.57648965E+00    2.37449687E-01 
S    1    1.000000
   5.76963394E-01    1.00000000E+00 
S    1    1.000000
   2.29728314E-01    1.00000000E+00 
S    1    1.000000
   9.51644400E-02    1.00000000E+00 
S    1    1.000000
   4.84754014E-02    1.00000000E+00 
P    4    1.000000
   3.46972322E+01    5.33336578E-03 
   7.95826228E+00    3.58641091E-02 
   2.37808269E+00    1.42158733E-01 
   8.14332082E-01    3.42704718E-01 
P    1    1.000000
   2.88875473E-01    4.64458224E-01 
P    1    1.000000
   1.00568237E-01    2.49557899E-01 
D    1    1.000000
   1.09700000E+00    1.00000000E+00 
D    1    1.000000
   3.18000000E-01    1.00000000E+00 
F    1    1.000000
   7.61000000E-01    1.00000000E+00 
****
C    0
S    6    1.000000
   1.35753497E+04    2.22458144E-04 
   2.03523337E+03    1.72327383E-03 
   4.63225624E+02    8.92557153E-03 
   1.31200196E+02    3.57279845E-02 
   4.28530159E+01    1.10762599E-01 
   1.55841858E+01    2.42956276E-01 
S    2    1.000000
   6.20671385E+00    4.14402634E-01 
   2.57648965E+00    2.37449687E-01 
S    1    1.000000
   5.76963394E-01    1.00000000E+00 
S    1    1.000000
   2.29728314E-01    1.00000000E+00 
S    1    1.000000
   9.51644400E-02    1.00000000E+00 
S    1    1.000000
   4.84754014E-02    1.00000000E+00 
P    4    1.000000
   3.46972322E+01    5.33336578E-03 
   7.95826228E+00    3.58641091E-02 
   2.37808269E+00    1.42158733E-01 
   8.14332082E-01    3.42704718E-01 
P    1    1.000000
   2.88875473E-01    4.64458224E-01 
P    1    1.000000
   1.00568237E-01    2.49557899E-01 
D    1    1.000000
   1.09700000E+00    1.00000000E+00 
D    1    1.000000
   3.18000000E-01    1.00000000E+00 
F    1    1.000000
   7.61000000E-01    1.00000000E+00 
****
C    0
S    6    1.000000
   1.35753497E+04    2.22458144E-04 
   2.03523337E+03    1.72327383E-03 
   4.63225624E+02    8.92557153E-03 
   1.31200196E+02    3.57279845E-02 
   4.28530159E+01    1.10762599E-01 
   1.55841858E+01    2.42956276E-01 
S    2    1.000000
   6.20671385E+00    4.14402634E-01 
   2.57648965E+00    2.37449687E-01 
S    1    1.000000
   5.76963394E-01    1.00000000E+00 
S    1    1.000000
   2.29728314E-01    1.00000000E+00 
S    1    1.000000
   9.51644400E-02    1.00000000E+00 
S    1    1.000000
   4.84754014E-02    1.00000000E+00 
P    4    1.000000
   3.46972322E+01    5.33336578E-03 
   7.95826228E+00    3.58641091E-02 
   2.37808269E+00    1.42158733E-01 
   8.14332082E-01    3.42704718E-01 
P    1    1.000000
   2.88875473E-01    4.64458224E-01 
P    1    1.000000
   1.00568237E-01    2.49557899E-01 
D    1    1.000000
   1.09700000E+00    1.00000000E+00 
D    1    1.000000
   3.18000000E-01    1.00000000E+00 
F    1    1.000000
   7.61000000E-01    1.00000000E+00 
****
C    0
S    6    1.000000
   1.35753497E+04    2.22458144E-04 
   2.03523337E+03    1.72327383E-03 
   4.63225624E+02    8.92557153E-03 
   1.31200196E+02    3.57279845E-02 
   4.28530159E+01    1.10762599E-01 
   1.55841858E+01    2.42956276E-01 
S    2    1.000000
   6.20671385E+00    4.14402634E-01 
   2.57648965E+00    2.37449687E-01 
S    1    1.000000
   5.76963394E-01    1.00000000E+00 
S    1    1.000000
   2.29728314E-01    1.00000000E+00 
S    1    1.000000
   9.51644400E-02    1.00000000E+00 
S    1    1.000000
   4.84754014E-02    1.00000000E+00 
P    4    1.000000
   3.46972322E+01    5.33336578E-03 
   7.95826228E+00    3.58641091E-02 
   2.37808269E+00    1.42158733E-01 
   8.14332082E-01    3.42704718E-01 
P    1    1.000000
   2.88875473E-01    4.64458224E-01 
P    1    1.000000
   1.00568237E-01    2.49557899E-01 
D    1    1.000000
   1.09700000E+00    1.00000000E+00 
D    1    1.000000
   3.18000000E-01    1.00000000E+00 
F    1    1.000000
   7.61000000E-01    1.00000000E+00 
****
C    0
S    6    1.000000
   1.35753497E+04    2.22458144E-04 
   2.03523337E+03    1.72327383E-03 
   4.63225624E+02    8.92557153E-03 
   1.31200196E+02    3.57279845E-02 
   4.28530159E+01    1.10762599E-01 
   1.55841858E+01    2.42956276E-01 
S    2    1.000000
   6.20671385E+00    4.14402634E-01 
   2.57648965E+00    2.37449687E-01 
S    1    1.000000
   5.76963394E-01    1.00000000E+00 
S    1    1.000000
   2.29728314E-01    1.00000000E+00 
S    1    1.000000
   9.51644400E-02    1.00000000E+00 
S    1    1.000000
   4.84754014E-02    1.00000000E+00 
P    4    1.000000
   3.46972322E+01    5.33336578E-03 
   7.95826228E+00    3.58641091E-02 
   2.37808269E+00    1.42158733E-01 
   8.14332082E-01    3.42704718E-01 
P    1    1.000000
   2.88875473E-01    4.64458224E-01 
P    1    1.000000
   1.00568237E-01    2.49557899E-01 
D    1    1.000000
   1.09700000E+00    1.00000000E+00 
D    1    1.000000
   3.18000000E-01    1.00000000E+00 
F    1    1.000000
   7.61000000E-01    1.00000000E+00 
****
C    0
S    6    1.000000
   1.35753497E+04    2.22458144E-04 
   2.03523337E+03    1.72327383E-03 
   4.63225624E+02    8.92557153E-03 
   1.31200196E+02    3.57279845E-02 
   4.28530159E+01    1.10762599E-01 
   1.55841858E+01    2.42956276E-01 
S    2    1.000000
   6.20671385E+00    4.14402634E-01 
   2.57648965E+00    2.37449687E-01 
S    1    1.000000
   5.76963394E-01    1.00000000E+00 
S    1    1.000000
   2.29728314E-01    1.00000000E+00 
S    1    1.000000
   9.51644400E-02    1.00000000E+00 
S    1    1.000000
   4.84754014E-02    1.00000000E+00 
P    4    1.000000
   3.46972322E+01    5.33336578E-03 
   7.95826228E+00    3.58641091E-02 
   2.37808269E+00    1.42158733E-01 
   8.14332082E-01    3.42704718E-01 
P    1    1.000000
   2.88875473E-01    4.64458224E-01 
P    1    1.000000
   1.00568237E-01    2.49557899E-01 
D    1    1.000000
   1.09700000E+00    1.00000000E+00 
D    1    1.000000
   3.18000000E-01    1.00000000E+00 
F    1    1.000000
   7.61000000E-01    1.00000000E+00 
****
O    0
S    6    1.000000
   2.70323826E+04    2.17263025E-04 
   4.05238714E+03    1.68386622E-03 
   9.22327227E+02    8.73956163E-03 
   2.61240710E+02    3.52399688E-02 
   8.53546414E+01    1.11535191E-01 
   3.10350352E+01    2.55889540E-01 
S    2    1.000000
   1.22608607E+01    3.97687309E-01 
   4.99870760E+00    2.46278494E-01 
S    1    1.000000
   1.17031082E+00    1.00000000E+00 
S    1    1.000000
   4.64747410E-01    1.00000000E+00 
S    1    1.000000
   1.85045364E-01    1.00000000E+00 
S    1    1.000000
   7.02880263E-02    1.00000000E+00 
P    4    1.000000
   6.32749548E+01    6.06851034E-03 
   1.46270494E+01    4.19125758E-02 
   4.45012235E+00    1.61538411E-01 
   1.52757996E+00    3.57069513E-01 
P    1    1.000000
   5.29351179E-01    4.47942075E-01 
P    1    1.000000
   1.74784213E-01    2.44460697E-01 
P    1    1.000000
   5.11127457E-02    1.00000000E+00 
D    1    1.000000
   2.31400000E+00    1.00000000E+00 
D    1    1.000000
   6.45000000E-01    1.00000000E+00 
F    1    1.000000
   1.42800000E+00    1.00000000E+00 
****
C    0
S    6    1.000000
   1.35753497E+04    2.22458144E-04 
   2.03523337E+03    1.72327383E-03 
   4.63225624E+02    8.92557153E-03 
   1.31200196E+02    3.57279845E-02 
   4.28530159E+01    1.10762599E-01 
   1.55841858E+01    2.42956276E-01 
S    2    1.000000
   6.20671385E+00    4.14402634E-01 
   2.57648965E+00    2.37449687E-01 
S    1    1.000000
   5.76963394E-01    1.00000000E+00 
S    1    1.000000
   2.29728314E-01    1.00000000E+00 
S    1    1.000000
   9.51644400E-02    1.00000000E+00 
S    1    1.000000
   4.84754014E-02    1.00000000E+00 
P    4    1.000000
   3.46972322E+01    5.33336578E-03 
   7.95826228E+00    3.58641091E-02 
   2.37808269E+00    1.42158733E-01 
   8.14332082E-01    3.42704718E-01 
P    1    1.000000
   2.88875473E-01    4.64458224E-01 
P    1    1.000000
   1.00568237E-01    2.49557899E-01 
D    1    1.000000
   1.09700000E+00    1.00000000E+00 
D    1    1.000000
   3.18000000E-01    1.00000000E+00 
F    1    1.000000
   7.61000000E-01    1.00000000E+00 
****
C    0
S    6    1.000000
   1.35753497E+04    2.22458144E-04 
   2.03523337E+03    1.72327383E-03 
   4.63225624E+02    8.92557153E-03 
   1.31200196E+02    3.57279845E-02 
   4.28530159E+01    1.10762599E-01 
   1.55841858E+01    2.42956276E-01 
S    2    1.000000
   6.20671385E+00    4.14402634E-01 
   2.57648965E+00    2.37449687E-01 
S    1    1.000000
   5.76963394E-01    1.00000000E+00 
S    1    1.000000
   2.29728314E-01    1.00000000E+00 
S    1    1.000000
   9.51644400E-02    1.00000000E+00 
S    1    1.000000
   4.84754014E-02    1.00000000E+00 
P    4    1.000000
   3.46972322E+01    5.33336578E-03 
   7.95826228E+00    3.58641091E-02 
   2.37808269E+00    1.42158733E-01 
   8.14332082E-01    3.42704718E-01 
P    1    1.000000
   2.88875473E-01    4.64458224E-01 
P    1    1.000000
   1.00568237E-01    2.49557899E-01 
D    1    1.000000
   1.09700000E+00    1.00000000E+00 
D    1    1.000000
   3.18000000E-01    1.00000000E+00 
F    1    1.000000
   7.61000000E-01    1.00000000E+00 
****
C    0
S    6    1.000000
   1.35753497E+04    2.22458144E-04 
   2.03523337E+03    1.72327383E-03 
   4.63225624E+02    8.92557153E-03 
   1.31200196E+02    3.57279845E-02 
   4.28530159E+01    1.10762599E-01 
   1.55841858E+01    2.42956276E-01 
S    2    1.000000
   6.20671385E+00    4.14402634E-01 
   2.57648965E+00    2.37449687E-01 
S    1    1.000000
   5.76963394E-01    1.00000000E+00 
S    1    1.000000
   2.29728314E-01    1.00000000E+00 
S    1    1.000000
   9.51644400E-02    1.00000000E+00 
S    1    1.000000
   4.84754014E-02    1.00000000E+00 
P    4    1.000000
   3.46972322E+01    5.33336578E-03 
   7.95826228E+00    3.58641091E-02 
   2.37808269E+00    1.42158733E-01 
   8.14332082E-01    3.42704718E-01 
P    1    1.000000
   2.88875473E-01    4.64458224E-01 
P    1    1.000000
   1.00568237E-01    2.49557899E-01 
D    1    1.000000
   1.09700000E+00    1.00000000E+00 
D    1    1.000000
   3.18000000E-01    1.00000000E+00 
F    1    1.000000
   7.61000000E-01    1.00000000E+00 
****
C    0
S    6    1.000000
   1.35753497E+04    2.22458144E-04 
   2.03523337E+03    1.72327383E-03 
   4.63225624E+02    8.92557153E-03 
   1.31200196E+02    3.57279845E-02 
   4.28530159E+01    1.10762599E-01 
   1.55841858E+01    2.42956276E-01 
S    2    1.000000
   6.20671385E+00    4.14402634E-01 
   2.57648965E+00    2.37449687E-01 
S    1    1.000000
   5.76963394E-01    1.00000000E+00 
S    1    1.000000
   2.29728314E-01    1.00000000E+00 
S    1    1.000000
   9.51644400E-02    1.00000000E+00 
S    1    1.000000
   4.84754014E-02    1.00000000E+00 
P    4    1.000000
   3.46972322E+01    5.33336578E-03 
   7.95826228E+00    3.58641091E-02 
   2.37808269E+00    1.42158733E-01 
   8.14332082E-01    3.42704718E-01 
P    1    1.000000
   2.88875473E-01    4.64458224E-01 
P    1    1.000000
   1.00568237E-01    2.49557899E-01 
D    1    1.000000
   1.09700000E+00    1.00000000E+00 
D    1    1.000000
   3.18000000E-01    1.00000000E+00 
F    1    1.000000
   7.61000000E-01    1.00000000E+00 
****
C    0
S    6    1.000000
   1.35753497E+04    2.22458144E-04 
   2.03523337E+03    1.72327383E-03 
   4.63225624E+02    8.92557153E-03 
   1.31200196E+02    3.57279845E-02 
   4.28530159E+01    1.10762599E-01 
   1.55841858E+01    2.42956276E-01 
S    2    1.000000
   6.20671385E+00    4.14402634E-01 
   2.57648965E+00    2.37449687E-01 
S    1    1.000000
   5.76963394E-01    1.00000000E+00 
S    1    1.000000
   2.29728314E-01    1.00000000E+00 
S    1    1.000000
   9.51644400E-02    1.00000000E+00 
S    1    1.000000
   4.84754014E-02    1.00000000E+00 
P    4    1.000000
   3.46972322E+01    5.33336578E-03 
   7.95826228E+00    3.58641091E-02 
   2.37808269E+00    1.42158733E-01 
   8.14332082E-01    3.42704718E-01 
P    1    1.000000
   2.88875473E-01    4.64458224E-01 
P    1    1.000000
   1.00568237E-01    2.49557899E-01 
D    1    1.000000
   1.09700000E+00    1.00000000E+00 
D    1    1.000000
   3.18000000E-01    1.00000000E+00 
F    1    1.000000
   7.61000000E-01    1.00000000E+00 
****
C    0
S    6    1.000000
   1.35753497E+04    2.22458144E-04 
   2.03523337E+03    1.72327383E-03 
   4.63225624E+02    8.92557153E-03 
   1.31200196E+02    3.57279845E-02 
   4.28530159E+01    1.10762599E-01 
   1.55841858E+01    2.42956276E-01 
S    2    1.000000
   6.20671385E+00    4.14402634E-01 
   2.57648965E+00    2.37449687E-01 
S    1    1.000000
   5.76963394E-01    1.00000000E+00 
S    1    1.000000
   2.29728314E-01    1.00000000E+00 
S    1    1.000000
   9.51644400E-02    1.00000000E+00 
S    1    1.000000
   4.84754014E-02    1.00000000E+00 
P    4    1.000000
   3.46972322E+01    5.33336578E-03 
   7.95826228E+00    3.58641091E-02 
   2.37808269E+00    1.42158733E-01 
   8.14332082E-01    3.42704718E-01 
P    1    1.000000
   2.88875473E-01    4.64458224E-01 
P    1    1.000000
   1.00568237E-01    2.49557899E-01 
D    1    1.000000
   1.09700000E+00    1.00000000E+00 
D    1    1.000000
   3.18000000E-01    1.00000000E+00 
F    1    1.000000
   7.61000000E-01    1.00000000E+00 
****
O    0
S    6    1.000000
   2.70323826E+04    2.17263025E-04 
   4.05238714E+03    1.68386622E-03 
   9.22327227E+02    8.73956163E-03 
   2.61240710E+02    3.52399688E-02 
   8.53546414E+01    1.11535191E-01 
   3.10350352E+01    2.55889540E-01 
S    2    1.000000
   1.22608607E+01    3.97687309E-01 
   4.99870760E+00    2.46278494E-01 
S    1    1.000000
   1.17031082E+00    1.00000000E+00 
S    1    1.000000
   4.64747410E-01    1.00000000E+00 
S    1    1.000000
   1.85045364E-01    1.00000000E+00 
S    1    1.000000
   7.02880263E-02    1.00000000E+00 
P    4    1.000000
   6.32749548E+01    6.06851034E-03 
   1.46270494E+01    4.19125758E-02 
   4.45012235E+00    1.61538411E-01 
   1.52757996E+00    3.57069513E-01 
P    1    1.000000
   5.29351179E-01    4.47942075E-01 
P    1    1.000000
   1.74784213E-01    2.44460697E-01 
P    1    1.000000
   5.11127457E-02    1.00000000E+00 
D    1    1.000000
   2.31400000E+00    1.00000000E+00 
D    1    1.000000
   6.45000000E-01    1.00000000E+00 
F    1    1.000000
   1.42800000E+00    1.00000000E+00 
****
H    0
S    3    1.000000
   3.40613410E+01    6.02519780E-03 
   5.12357460E+00    4.50210940E-02 
   1.16466260E+00    2.01897260E-01 
S    1    1.000000
   3.27230410E-01    1.00000000E+00 
S    1    1.000000
   1.03072410E-01    1.00000000E+00 
P    1    1.000000
   8.00000000E-01    1.00000000E+00 
****
O    0
S    6    1.000000
   2.70323826E+04    2.17263025E-04 
   4.05238714E+03    1.68386622E-03 
   9.22327227E+02    8.73956163E-03 
   2.61240710E+02    3.52399688E-02 
   8.53546414E+01    1.11535191E-01 
   3.10350352E+01    2.55889540E-01 
S    2    1.000000
   1.22608607E+01    3.97687309E-01 
   4.99870760E+00    2.46278494E-01 
S    1    1.000000
   1.17031082E+00    1.00000000E+00 
S    1    1.000000
   4.64747410E-01    1.00000000E+00 
S    1    1.000000
   1.85045364E-01    1.00000000E+00 
S    1    1.000000
   7.02880263E-02    1.00000000E+00 
P    4    1.000000
   6.32749548E+01    6.06851034E-03 
   1.46270494E+01    4.19125758E-02 
   4.45012235E+00    1.61538411E-01 
   1.52757996E+00    3.57069513E-01 
P    1    1.000000
   5.29351179E-01    4.47942075E-01 
P    1    1.000000
   1.74784213E-01    2.44460697E-01 
P    1    1.000000
   5.11127457E-02    1.00000000E+00 
D    1    1.000000
   2.31400000E+00    1.00000000E+00 
D    1    1.000000
   6.45000000E-01    1.00000000E+00 
F    1    1.000000
   1.42800000E+00    1.00000000E+00 
****
H    0
S    3    1.000000
   3.40613410E+01    6.02519780E-03 
   5.12357460E+00    4.50210940E-02 
   1.16466260E+00    2.01897260E-01 
S    1    1.000000
   3.27230410E-01    1.00000000E+00 
S    1    1.000000
   1.03072410E-01    1.00000000E+00 
P    1    1.000000
   8.00000000E-01    1.00000000E+00 
****
H    0
S    3    1.000000
   3.40613410E+01    6.02519780E-03 
   5.12357460E+00    4.50210940E-02 
   1.16466260E+00    2.01897260E-01 
S    1    1.000000
   3.27230410E-01    1.00000000E+00 
S    1    1.000000
   1.03072410E-01    1.00000000E+00 
P    1    1.000000
   8.00000000E-01    1.00000000E+00 
****
O    0
S    6    1.000000
   2.70323826E+04    2.17263025E-04 
   4.05238714E+03    1.68386622E-03 
   9.22327227E+02    8.73956163E-03 
   2.61240710E+02    3.52399688E-02 
   8.53546414E+01    1.11535191E-01 
   3.10350352E+01    2.55889540E-01 
S    2    1.000000
   1.22608607E+01    3.97687309E-01 
   4.99870760E+00    2.46278494E-01 
S    1    1.000000
   1.17031082E+00    1.00000000E+00 
S    1    1.000000
   4.64747410E-01    1.00000000E+00 
S    1    1.000000
   1.85045364E-01    1.00000000E+00 
S    1    1.000000
   7.02880263E-02    1.00000000E+00 
P    4    1.000000
   6.32749548E+01    6.06851034E-03 
   1.46270494E+01    4.19125758E-02 
   4.45012235E+00    1.61538411E-01 
   1.52757996E+00    3.57069513E-01 
P    1    1.000000
   5.29351179E-01    4.47942075E-01 
P    1    1.000000
   1.74784213E-01    2.44460697E-01 
P    1    1.000000
   5.11127457E-02    1.00000000E+00 
D    1    1.000000
   2.31400000E+00    1.00000000E+00 
D    1    1.000000
   6.45000000E-01    1.00000000E+00 
F    1    1.000000
   1.42800000E+00    1.00000000E+00 
****
H    0
S    3    1.000000
   3.40613410E+01    6.02519780E-03 
   5.12357460E+00    4.50210940E-02 
   1.16466260E+00    2.01897260E-01 
S    1    1.000000
   3.27230410E-01    1.00000000E+00 
S    1    1.000000
   1.03072410E-01    1.00000000E+00 
P    1    1.000000
   8.00000000E-01    1.00000000E+00 
****
H    0
S    3    1.000000
   3.40613410E+01    6.02519780E-03 
   5.12357460E+00    4.50210940E-02 
   1.16466260E+00    2.01897260E-01 
S    1    1.000000
   3.27230410E-01    1.00000000E+00 
S    1    1.000000
   1.03072410E-01    1.00000000E+00 
P    1    1.000000
   8.00000000E-01    1.00000000E+00 
****
O    0
S    6    1.000000
   2.70323826E+04    2.17263025E-04 
   4.05238714E+03    1.68386622E-03 
   9.22327227E+02    8.73956163E-03 
   2.61240710E+02    3.52399688E-02 
   8.53546414E+01    1.11535191E-01 
   3.10350352E+01    2.55889540E-01 
S    2    1.000000
   1.22608607E+01    3.97687309E-01 
   4.99870760E+00    2.46278494E-01 
S    1    1.000000
   1.17031082E+00    1.00000000E+00 
S    1    1.000000
   4.64747410E-01    1.00000000E+00 
S    1    1.000000
   1.85045364E-01    1.00000000E+00 
S    1    1.000000
   7.02880263E-02    1.00000000E+00 
P    4    1.000000
   6.32749548E+01    6.06851034E-03 
   1.46270494E+01    4.19125758E-02 
   4.45012235E+00    1.61538411E-01 
   1.52757996E+00    3.57069513E-01 
P    1    1.000000
   5.29351179E-01    4.47942075E-01 
P    1    1.000000
   1.74784213E-01    2.44460697E-01 
P    1    1.000000
   5.11127457E-02    1.00000000E+00 
D    1    1.000000
   2.31400000E+00    1.00000000E+00 
D    1    1.000000
   6.45000000E-01    1.00000000E+00 
F    1    1.000000
   1.42800000E+00    1.00000000E+00 
****
H    0
S    3    1.000000
   3.40613410E+01    6.02519780E-03 
   5.12357460E+00    4.50210940E-02 
   1.16466260E+00    2.01897260E-01 
S    1    1.000000
   3.27230410E-01    1.00000000E+00 
S    1    1.000000
   1.03072410E-01    1.00000000E+00 
P    1    1.000000
   8.00000000E-01    1.00000000E+00 
****
H    0
S    3    1.000000
   3.40613410E+01    6.02519780E-03 
   5.12357460E+00    4.50210940E-02 
   1.16466260E+00    2.01897260E-01 
S    1    1.000000
   3.27230410E-01    1.00000000E+00 
S    1    1.000000
   1.03072410E-01    1.00000000E+00 
P    1    1.000000
   8.00000000E-01    1.00000000E+00 
****
H    0
S    3    1.000000
   3.40613410E+01    6.02519780E-03 
   5.12357460E+00    4.50210940E-02 
   1.16466260E+00    2.01897260E-01 
S    1    1.000000
   3.27230410E-01    1.00000000E+00 
S    1    1.000000
   1.03072410E-01    1.00000000E+00 
P    1    1.000000
   8.00000000E-01    1.00000000E+00 
****
H    0
S    3    1.000000
   3.40613410E+01    6.02519780E-03 
   5.12357460E+00    4.50210940E-02 
   1.16466260E+00    2.01897260E-01 
S    1    1.000000
   3.27230410E-01    1.00000000E+00 
S    1    1.000000
   1.03072410E-01    1.00000000E+00 
P    1    1.000000
   8.00000000E-01    1.00000000E+00 
****
H    0
S    3    1.000000
   3.40613410E+01    6.02519780E-03 
   5.12357460E+00    4.50210940E-02 
   1.16466260E+00    2.01897260E-01 
S    1    1.000000
   3.27230410E-01    1.00000000E+00 
S    1    1.000000
   1.03072410E-01    1.00000000E+00 
P    1    1.000000
   8.00000000E-01    1.00000000E+00 
****
$end
-----------------------------------------------------------------------
 There are 285 shells and 715 basis functions

 Total QAlloc Memory Limit  64000 MB
 Mega-Array Size      1956 MB
 MEM_STATIC part      2000 MB

 User-specified dielectric constants (eps_0 = 78.39, eps_inf = 1.78)
 Using C-PCM dielectric factor f(eps) = (eps-1)/eps = 0.987243
 Static dielectric constant eps = 78.39
 Discretize the solute cavity surface with Lebedev spheres
	Using 110 Lebedev grid points for each H atom
	Using 194 Lebedev grid points for other atoms
	Atomic van der Waals radii (Bondi set) will be scaled by 1.20
 Using smooth SwiG surface discretization
 Remove points where switching function is < 1.0e-08
 Keep 2025 surface tesserae and discard 2955 interior tesserae
 Molecular Surface Area = 287.826 Angst**2

 A cutoff of  1.0D-12 yielded  29856 shell pairs
 There are    178206 function pairs (    226940 Cartesian)
 Smallest overlap matrix eigenvalue = 4.46E-06

 Scale SEOQF with 1.000000e-02/1.000000e-02/1.000000e-01

 Standard Electronic Orientation quadrupole field applied
 Nucleus-field energy     =    -0.0000000196 hartrees
 Guess from superposition of atomic densities
 Warning:  Energy on first SCF cycle will be non-variational
 SAD guess density has 140.000000 electrons

 -----------------------------------------------------------------------
  General SCF calculation program by
  Eric Jon Sundstrom, Paul Horn, Yuezhi Mao, Dmitri Zuev, Alec White,
  David Stuck, Shaama M.S., Shane Yost, Joonho Lee, David Small,
  Daniel Levine, Susi Lehtola, Hugh Burton, Evgeny Epifanovsky,
  Bang C. Huynh
 -----------------------------------------------------------------------
 Exchange:     0.1900 Hartree-Fock + 0.3500 B88 + 0.4600 muB88 + LR-HF
 Correlation:  0.1900 VWN5 + 0.8100 LYP
 Using SG-1 standard quadrature grid
 using 16 threads for integral computing
 -------------------------------------------------------
 OpenMP Integral computing Module                
 Release: version 1.0, May 2013, Q-Chem Inc. Pittsburgh 
 -------------------------------------------------------
 C-PCM solvent model [f = (eps-1)/eps], solve by matrix inversion
 DFT Correlation          Energy =  -5.68391522504447
 DFT Exchange             Energy = -86.74381842895289
 HF Exchange              Energy = -35.79058418678537
 One-Electron             Energy = -4124.78613834287808
 SCRF wf-dependent energy Energy =   0.00000000000000
 Total Coulomb            Energy = 1864.24098321320434
 Nuclear repulsion Energy = 1429.07085262474061
 A restricted SCF calculation will be
 performed using DIIS
 SCF converges when DIIS error is below 1.0e-08
 DFT Correlation          Energy =  -5.68391522504447
 DFT Exchange             Energy = -86.74381842895289
 HF Exchange              Energy = -35.79058418678537
 One-Electron             Energy = -4124.78613834287808
 SCRF wf-dependent energy Energy =   0.00000000000000
 Total Coulomb            Energy = 1864.24098321320434
 ---------------------------------------
  Cycle       Energy         DIIS error
 ---------------------------------------
 DFT Correlation          Energy =  -5.76428138632543
 DFT Exchange             Energy = -88.62922556800247
 HF Exchange              Energy = -34.48493026379317
 One-Electron             Energy = -4143.16277181294026
 SCRF wf-dependent energy Energy =  -1.18941431647954
 Total Coulomb            Energy = 1890.78641407509190
 Nuclear repulsion Energy = 1429.07085262474061
    1    -959.6926203457      2.17e-02  
 DFT Correlation          Energy =  -5.70781831707783
 DFT Exchange             Energy = -87.05801020658406
 HF Exchange              Energy = -34.04248149793748
 One-Electron             Energy = -4132.40487128146469
 SCRF wf-dependent energy Energy =   0.80706748223383
 Total Coulomb            Energy = 1876.12882819022002
 Nuclear repulsion Energy = 1429.07085262474061
    2    -953.3733566477      2.35e-03  
 DFT Correlation          Energy =  -5.73245681870404
 DFT Exchange             Energy = -87.79563144941325
 HF Exchange              Energy = -34.26900795524900
 One-Electron             Energy = -4134.09973451964106
 SCRF wf-dependent energy Energy =  -1.12682286648624
 Total Coulomb            Energy = 1880.29810140672862
 Nuclear repulsion Energy = 1429.07085262474061
    3    -953.2064330059      3.09e-03  
 DFT Correlation          Energy =  -5.73524281687266
 DFT Exchange             Energy = -87.84705361821158
 HF Exchange              Energy = -34.28229309612625
 One-Electron             Energy = -4136.44920163791812
 SCRF wf-dependent energy Energy =  -0.62283458983438
 Total Coulomb            Energy = 1882.19499746305200
 Nuclear repulsion Energy = 1429.07085262474061
    4    -953.6546995780      5.90e-04  
 DFT Correlation          Energy =  -5.73483980237612
 DFT Exchange             Energy = -87.83467042761544
 HF Exchange              Energy = -34.27994381183512
 One-Electron             Energy = -4136.38419978688489
 SCRF wf-dependent energy Energy =  -0.60975974718372
 Total Coulomb            Energy = 1882.10010356089242
 Nuclear repulsion Energy = 1429.07085262474061
    5    -953.6707756712      1.93e-04  
 DFT Correlation          Energy =  -5.73458740830207
 DFT Exchange             Energy = -87.83212811032350
 HF Exchange              Energy = -34.28003495940097
 One-Electron             Energy = -4136.18374747389134
 SCRF wf-dependent energy Energy =  -0.64592215258040
 Total Coulomb            Energy = 1881.93285058559331
 Nuclear repulsion Energy = 1429.07085262474061
    6    -953.6724573903      6.53e-05  
 DFT Correlation          Energy =  -5.73457973119834
 DFT Exchange             Energy = -87.83155289107523
 HF Exchange              Energy = -34.28017347941841
 One-Electron             Energy = -4136.20200876965373
 SCRF wf-dependent energy Energy =  -0.63703502577096
 Total Coulomb            Energy = 1881.94174796988113
 Nuclear repulsion Energy = 1429.07085262474061
    7    -953.6727168942      1.67e-05  
 DFT Correlation          Energy =  -5.73462618344106
 DFT Exchange             Energy = -87.83259280038698
 HF Exchange              Energy = -34.28057761067770
 One-Electron             Energy = -4136.22536572738773
 SCRF wf-dependent energy Energy =  -0.63406337075503
 Total Coulomb            Energy = 1881.96361293745849
 Nuclear repulsion Energy = 1429.07085262474061
    8    -953.6727493025      7.85e-06  
 DFT Correlation          Energy =  -5.73462459904270
 DFT Exchange             Energy = -87.83274527663235
 HF Exchange              Energy = -34.28070539123034
 One-Electron             Energy = -4136.22902032121783
 SCRF wf-dependent energy Energy =  -0.63166746692400
 Total Coulomb            Energy = 1881.96514632750791
 Nuclear repulsion Energy = 1429.07085262474061
    9    -953.6727601304      3.84e-06  
 DFT Correlation          Energy =  -5.73461812851931
 DFT Exchange             Energy = -87.83251432781324
 HF Exchange              Energy = -34.28066161127990
 One-Electron             Energy = -4136.22580577410645
 SCRF wf-dependent energy Energy =  -0.63172603275052
 Total Coulomb            Energy = 1881.96170846077803
 Nuclear repulsion Energy = 1429.07085262474061
   10    -953.6727641028      1.93e-06  
 DFT Correlation          Energy =  -5.73462273727372
 DFT Exchange             Energy = -87.83266949775327
 HF Exchange              Energy = -34.28070336952056
 One-Electron             Energy = -4136.22899735836381
 SCRF wf-dependent energy Energy =  -0.63108821606806
 Total Coulomb            Energy = 1881.96446360517939
 Nuclear repulsion Energy = 1429.07085262474061
   11    -953.6727647890      6.93e-07  
 DFT Correlation          Energy =  -5.73462304352262
 DFT Exchange             Energy = -87.83265404783413
 HF Exchange              Energy = -34.28069871065182
 One-Electron             Energy = -4136.22930269888911
 SCRF wf-dependent energy Energy =  -0.63093723725615
 Total Coulomb            Energy = 1881.96459813388901
 Nuclear repulsion Energy = 1429.07085262474061
   12    -953.6727649491      4.39e-07  
 DFT Correlation          Energy =  -5.73462283496930
 DFT Exchange             Energy = -87.83265684865199
 HF Exchange              Energy = -34.28069840118938
 One-Electron             Energy = -4136.22914219777340
 SCRF wf-dependent energy Energy =  -0.63095012605913
 Total Coulomb            Energy = 1881.96445280064108
 Nuclear repulsion Energy = 1429.07085262474061
   13    -953.6727649795      1.52e-07  
 DFT Correlation          Energy =  -5.73462288104193
 DFT Exchange             Energy = -87.83265659355486
 HF Exchange              Energy = -34.28069796851435
 One-Electron             Energy = -4136.22917037010666
 SCRF wf-dependent energy Energy =  -0.63094317897389
 Total Coulomb            Energy = 1881.96447338422399
 Nuclear repulsion Energy = 1429.07085262474061
   14    -953.6727649833      4.10e-08  
 DFT Correlation          Energy =  -5.73462288983731
 DFT Exchange             Energy = -87.83265654093353
 HF Exchange              Energy = -34.28069789580128
 One-Electron             Energy = -4136.22918732160451
 SCRF wf-dependent energy Energy =  -0.63093774092795
 Total Coulomb            Energy = 1881.96448478104730
 Nuclear repulsion Energy = 1429.07085262474061
   15    -953.6727649832      2.06e-08  
   16    -953.6727649833      6.17e-09  Convergence criterion met
 ---------------------------------------
 DFT Correlation          Energy =  -5.73462288983731
 DFT Exchange             Energy = -87.83265654093353
 HF Exchange              Energy = -34.28069789580128
 One-Electron             Energy = -4136.22918732160451
 SCRF wf-dependent energy Energy =  -0.63093774092795
 Total Coulomb            Energy = 1881.96448478104730
 Final Alpha MO Eigenvalues
            1           2           3           4           5           6
    1 -19.2946701 -19.2451945 -19.2447897 -19.2411161 -19.1539232 -10.3563983
            7           8           9          10          11          12
    1 -10.3450768 -10.3362674 -10.3353896 -10.3271639 -10.3204845 -10.2995094
           13          14          15          16          17          18
    1 -10.2850637 -10.2749859 -10.2664324 -10.2662071 -10.2564175 -10.2549398
           19          20          21          22          23          24
    1 -10.2454901 -10.2366241  -1.2201242  -1.1596956  -1.1591353  -1.1534981
           25          26          27          28          29          30
    1  -1.0771125  -0.9666591  -0.9538833  -0.9206719  -0.8762507  -0.8484259
           31          32          33          34          35          36
    1  -0.8373509  -0.8199928  -0.7644271  -0.7518515  -0.7133713  -0.7114060
           37          38          39          40          41          42
    1  -0.6942733  -0.6481344  -0.6388698  -0.6281765  -0.6236166  -0.6010867
           43          44          45          46          47          48
    1  -0.5812095  -0.5724597  -0.5686461  -0.5525851  -0.5337979  -0.5251120
           49          50          51          52          53          54
    1  -0.5095972  -0.5070101  -0.5053778  -0.4986086  -0.4915227  -0.4885198
           55          56          57          58          59          60
    1  -0.4808257  -0.4691487  -0.4654160  -0.4553958  -0.4517352  -0.4416378
           61          62          63          64          65          66
    1  -0.4319839  -0.4298585  -0.4100699  -0.3978651  -0.3569272  -0.3286522
           67          68          69          70          71          72
    1  -0.3141549  -0.3091345  -0.2978699  -0.2498977  -0.0663756   0.0104534
           73          74          75          76          77          78
    1   0.0206047   0.0283229   0.0375261   0.0423248   0.0431219   0.0482896
           79          80          81          82          83          84
    1   0.0582261   0.0624235   0.0705281   0.0733723   0.0763114   0.0856650
           85          86          87          88          89          90
    1   0.0893569   0.0944922   0.0980205   0.1011323   0.1037337   0.1096305
           91          92          93          94          95          96
    1   0.1131685   0.1231512   0.1262767   0.1286337   0.1382968   0.1428552
           97          98          99         100         101         102
    1   0.1457565   0.1490526   0.1598785   0.1726960   0.1743964   0.1801186
          103         104         105         106         107         108
    1   0.1877327   0.1887055   0.1939019   0.1967184   0.2012957   0.2060083
          109         110         111         112         113         114
    1   0.2116232   0.2144433   0.2224317   0.2306906   0.2329306   0.2375268
          115         116         117         118         119         120
    1   0.2435519   0.2492487   0.2589361   0.2596769   0.2676543   0.2734153
          121         122         123         124         125         126
    1   0.2776365   0.2815628   0.2892968   0.2926547   0.2981154   0.3066879
          127         128         129         130         131         132
    1   0.3110221   0.3114514   0.3137661   0.3158979   0.3214348   0.3285750
          133         134         135         136         137         138
    1   0.3349703   0.3359373   0.3412560   0.3437164   0.3497130   0.3547305
          139         140         141         142         143         144
    1   0.3599220   0.3656175   0.3680486   0.3717882   0.3775592   0.3817875
          145         146         147         148         149         150
    1   0.3872690   0.3949003   0.3963319   0.3981279   0.4059477   0.4091629
          151         152         153         154         155         156
    1   0.4131738   0.4216333   0.4283021   0.4359586   0.4382339   0.4445081
          157         158         159         160         161         162
    1   0.4455101   0.4548316   0.4570401   0.4614355   0.4636941   0.4719507
          163         164         165         166         167         168
    1   0.4769210   0.4808478   0.4851179   0.4892818   0.4899815   0.4937661
          169         170         171         172         173         174
    1   0.5003367   0.5051298   0.5072269   0.5115734   0.5224015   0.5241360
          175         176         177         178         179         180
    1   0.5309666   0.5345814   0.5403051   0.5407903   0.5475771   0.5513451
          181         182         183         184         185         186
    1   0.5608332   0.5633348   0.5717815   0.5777769   0.5828486   0.5930117
          187         188         189         190         191         192
    1   0.5996284   0.6078648   0.6154089   0.6220945   0.6258266   0.6315953
          193         194         195         196         197         198
    1   0.6378487   0.6433717   0.6444391   0.6471571   0.6551023   0.6591268
          199         200         201         202         203         204
    1   0.6702507   0.6778684   0.6815826   0.6903720   0.6937344   0.6993300
          205         206         207         208         209         210
    1   0.7022228   0.7195710   0.7215603   0.7273376   0.7342354   0.7372476
          211         212         213         214         215         216
    1   0.7382970   0.7496472   0.7621800   0.7661226   0.7742618   0.7811646
          217         218         219         220         221         222
    1   0.7838009   0.7866560   0.7988542   0.8010423   0.8047865   0.8078205
          223         224         225         226         227         228
    1   0.8138886   0.8172175   0.8242141   0.8290726   0.8399488   0.8412620
          229         230         231         232         233         234
    1   0.8469960   0.8581772   0.8679609   0.8697213   0.8805117   0.8966123
          235         236         237         238         239         240
    1   0.9026185   0.9101658   0.9153149   0.9211011   0.9274359   0.9380640
          241         242         243         244         245         246
    1   0.9479040   0.9529916   0.9586939   0.9758328   0.9967095   1.0081102
          247         248         249         250         251         252
    1   1.0123903   1.0330671   1.0462736   1.0532289   1.0616173   1.0713461
          253         254         255         256         257         258
    1   1.0786257   1.0847479   1.0901068   1.1031887   1.1071546   1.1176038
          259         260         261         262         263         264
    1   1.1299622   1.1345143   1.1514971   1.1651401   1.1666937   1.1718892
          265         266         267         268         269         270
    1   1.1780035   1.1819240   1.1947078   1.1993478   1.2026051   1.2271286
          271         272         273         274         275         276
    1   1.2359989   1.2402990   1.2526059   1.2581882   1.2721287   1.2770294
          277         278         279         280         281         282
    1   1.2933670   1.3104033   1.3188264   1.3271815   1.3363124   1.3426629
          283         284         285         286         287         288
    1   1.3515396   1.3593170   1.3669557   1.3754068   1.3851398   1.3970316
          289         290         291         292         293         294
    1   1.4160180   1.4181862   1.4221242   1.4366378   1.4589332   1.4643498
          295         296         297         298         299         300
    1   1.4734796   1.4752089   1.4895170   1.4985551   1.5099422   1.5229021
          301         302         303         304         305         306
    1   1.5253092   1.5341208   1.5456636   1.5505963   1.5610802   1.5676669
          307         308         309         310         311         312
    1   1.5712404   1.5880904   1.5949712   1.6060831   1.6085691   1.6222229
          313         314         315         316         317         318
    1   1.6305805   1.6435996   1.6464062   1.6576623   1.6700349   1.6802900
          319         320         321         322         323         324
    1   1.6900090   1.6981809   1.7041710   1.7176878   1.7224944   1.7241078
          325         326         327         328         329         330
    1   1.7316676   1.7402663   1.7503788   1.7569385   1.7699395   1.7782555
          331         332         333         334         335         336
    1   1.7845366   1.7928369   1.7952265   1.8080966   1.8218546   1.8315418
          337         338         339         340         341         342
    1   1.8448895   1.8661004   1.8787550   1.8815161   1.8894248   1.9036995
          343         344         345         346         347         348
    1   1.9175578   1.9402943   1.9477501   1.9506461   1.9554966   1.9683935
          349         350         351         352         353         354
    1   1.9835390   1.9846806   1.9941440   2.0035706   2.0168798   2.0264584
          355         356         357         358         359         360
    1   2.0335921   2.0475660   2.0533479   2.0659200   2.0702549   2.0963961
          361         362         363         364         365         366
    1   2.1015227   2.1063377   2.1243140   2.1321484   2.1415837   2.1611745
          367         368         369         370         371         372
    1   2.1686109   2.1785931   2.1839226   2.2018894   2.2068247   2.2084267
          373         374         375         376         377         378
    1   2.2123348   2.2207285   2.2287213   2.2327710   2.2469401   2.2630725
          379         380         381         382         383         384
    1   2.2702921   2.2870461   2.2893940   2.3005547   2.3186954   2.3240951
          385         386         387         388         389         390
    1   2.3358677   2.3629585   2.3708141   2.3734953   2.3773276   2.3950706
          391         392         393         394         395         396
    1   2.4052592   2.4110399   2.4271643   2.4368333   2.4435104   2.4632682
          397         398         399         400         401         402
    1   2.4830563   2.5010678   2.5166287   2.5268893   2.5465963   2.5571151
          403         404         405         406         407         408
    1   2.5614487   2.5739536   2.5974440   2.6056905   2.6235087   2.6338290
          409         410         411         412         413         414
    1   2.6361844   2.6529092   2.6615496   2.6691371   2.6889230   2.6981682
          415         416         417         418         419         420
    1   2.7036878   2.7070788   2.7198434   2.7250772   2.7257877   2.7331916
          421         422         423         424         425         426
    1   2.7451879   2.7481150   2.7630590   2.7726829   2.7775785   2.7838474
          427         428         429         430         431         432
    1   2.7872506   2.7985718   2.8058625   2.8137418   2.8234457   2.8340530
          433         434         435         436         437         438
    1   2.8453963   2.8508259   2.8550134   2.8622489   2.8636288   2.8777844
          439         440         441         442         443         444
    1   2.8879832   2.8929898   2.8987823   2.9076895   2.9169664   2.9188484
          445         446         447         448         449         450
    1   2.9395985   2.9433174   2.9478847   2.9631232   2.9737611   2.9770670
          451         452         453         454         455         456
    1   2.9950329   2.9983193   3.0042340   3.0111543   3.0196824   3.0256171
          457         458         459         460         461         462
    1   3.0303849   3.0461537   3.0524994   3.0651038   3.0800424   3.0836456
          463         464         465         466         467         468
    1   3.0903620   3.0966977   3.1042890   3.1136745   3.1336539   3.1365853
          469         470         471         472         473         474
    1   3.1438031   3.1562295   3.1609457   3.1692125   3.1757506   3.1868555
          475         476         477         478         479         480
    1   3.1964806   3.2050615   3.2105397   3.2120374   3.2200572   3.2231936
          481         482         483         484         485         486
    1   3.2366849   3.2409907   3.2476465   3.2526693   3.2581300   3.2644602
          487         488         489         490         491         492
    1   3.2735743   3.2821372   3.2919935   3.2945268   3.3117267   3.3189671
          493         494         495         496         497         498
    1   3.3258418   3.3370885   3.3473116   3.3499747   3.3622208   3.3639168
          499         500         501         502         503         504
    1   3.3702521   3.3801153   3.3848623   3.3964296   3.4008994   3.4102170
          505         506         507         508         509         510
    1   3.4235373   3.4358031   3.4392761   3.4450611   3.4502414   3.4575198
          511         512         513         514         515         516
    1   3.4599878   3.4786677   3.4810311   3.4848198   3.4866704   3.4947455
          517         518         519         520         521         522
    1   3.5133987   3.5169679   3.5223647   3.5253898   3.5356150   3.5451838
          523         524         525         526         527         528
    1   3.5540046   3.5639835   3.5683875   3.5789906   3.5844324   3.5850387
          529         530         531         532         533         534
    1   3.6057809   3.6092234   3.6269095   3.6337595   3.6514564   3.6626716
          535         536         537         538         539         540
    1   3.6672371   3.6813160   3.6908254   3.7111983   3.7129038   3.7270944
          541         542         543         544         545         546
    1   3.7546423   3.7572120   3.7625527   3.7970374   3.8066940   3.8139141
          547         548         549         550         551         552
    1   3.8342154   3.8546870   3.8604648   3.8836810   3.9112454   3.9152292
          553         554         555         556         557         558
    1   3.9357119   3.9420520   3.9628079   3.9934620   4.0021340   4.0147279
          559         560         561         562         563         564
    1   4.0274927   4.0406938   4.0458981   4.0566890   4.0695145   4.0938959
          565         566         567         568         569         570
    1   4.1054459   4.1126316   4.1240152   4.1376605   4.1828333   4.1906799
          571         572         573         574         575         576
    1   4.1975571   4.2077872   4.2317014   4.2358328   4.2436067   4.2573575
          577         578         579         580         581         582
    1   4.2673006   4.2793494   4.2896953   4.2937944   4.2983212   4.3075666
          583         584         585         586         587         588
    1   4.3156402   4.3598052   4.3751849   4.3812757   4.3959437   4.4364734
          589         590         591         592         593         594
    1   4.4452907   4.4560021   4.4808272   4.4987197   4.5117405   4.5395032
          595         596         597         598         599         600
    1   4.5494366   4.5882818   4.5969067   4.6171655   4.6204600   4.6629702
          601         602         603         604         605         606
    1   4.6650783   4.6803945   4.6963376   4.7115988   4.7283450   4.7856437
          607         608         609         610         611         612
    1   4.7978579   4.8069605   4.8410766   4.8563230   4.9076695   4.9209596
          613         614         615         616         617         618
    1   4.9318632   4.9525226   4.9619271   4.9774863   5.0007726   5.0137082
          619         620         621         622         623         624
    1   5.0300681   5.0818331   5.0969692   5.1410718   5.1909167   5.2128284
          625         626         627         628         629         630
    1   5.2617165   5.2958003   5.3090635   5.3189185   5.3213614   5.3254324
          631         632         633         634         635         636
    1   5.3367422   5.3601215   5.3711876   5.3930195   5.4320638   5.4649279
          637         638         639         640         641         642
    1   5.4834313   5.5226237   5.5355633   5.5373382   5.5454134   5.5651369
          643         644         645         646         647         648
    1   5.5821814   5.5975926   5.6310628   5.6326731   5.6627523   5.6965746
          649         650         651         652         653         654
    1   5.7991439   5.8267199   5.8380527   5.8475502   5.8501265   5.8751856
          655         656         657         658         659         660
    1   6.0464981   6.0588493   6.0637129   6.0783121   6.1153507   6.2002838
          661         662         663         664         665         666
    1   6.2771887   6.3906413   6.3960570   6.4344588   6.4529790   6.4605062
          667         668         669         670         671         672
    1   6.4663142   6.4733894   6.4759997   6.4969542   6.5128285   6.6025823
          673         674         675         676         677         678
    1   6.6724859   6.7092403   6.7264955   6.7779820   6.7824490   6.7897082
          679         680         681         682         683         684
    1   6.8894594   6.9084612   6.9182868   6.9259647   6.9496943   6.9611433
          685         686         687         688         689         690
    1   7.0142772   7.0914607   7.1266717   7.1536951   7.1695519   7.2341373
          691         692         693         694         695         696
    1   7.3716075   7.3967886   7.4088751   7.4930097   7.5535050  22.3590843
          697         698         699         700         701         702
    1  22.5436744  22.7457710  22.7856351  22.7944545  22.8296379  22.8649747
          703         704         705         706         707         708
    1  22.9593610  22.9706695  23.0342094  23.1522737  23.1921460  23.2612104
          709         710         711         712         713         714
    1  23.4971546  23.6979056  44.0869572  44.1150510  44.1460485  44.1595365
          715
    1  44.6384360
 SCF time:   CPU 7556.52s  wall 551.00s 
 DFT Correlation          Energy =  -5.73462288983731
 DFT Exchange             Energy = -87.83265654093353
 HF Exchange              Energy = -34.28069789580128
 One-Electron             Energy = -4136.22918732160451
 SCRF wf-dependent energy Energy =  -0.63093774092795
 Total Coulomb            Energy = 1881.96448478104730
 Nuclear repulsion Energy = 1429.07085262474061

************** Final PCM Free Energy Summary **************
 G_electrostatic  =      -0.05270795 hartree =     -33.07473560 kcal/mol
 G_cavitation     =       0.00000000 hartree =       0.00000000 kcal/mol
 G_dispersion     =       0.00000000 hartree =       0.00000000 kcal/mol
 G_repulsion      =       0.00000000 hartree =       0.00000000 kcal/mol
 --------------------------------------------------
 Non-electrostatic Free Energy =       0.00000000 hartree =       0.00000000 kcal/mol
 Total                         =      -0.05270795 hartree =     -33.07473560 kcal/mol
 --------------------------------------------------
 SCF Energy (H0 + V/2)                       =    -953.67276498 
 Solute Internal Energy (H0)                 =    -953.62005704 
 Total Free Energy (H0 + V/2 + non-elec)     =    -953.67276498 hartree
                                             = -598438.69518294 kcal/mol
***********************************************************

 SCF   energy =  -953.67276498
 Total energy =  -953.67276498
 MAX_CIS_SUBSPACE fits in available memory
 Direct TDDFT/TDA calculation will be performed
 Exchange:     0.1900 Hartree-Fock + 0.3500 B88 + 0.4600 muB88 + LR-HF
 Correlation:  0.1900 VWN5 + 0.8100 LYP
 Using SG-1 standard quadrature grid
 Triplet excitation energies requested
 Singlet excitation energies requested
 Adding PCM contribution to the XC response (LR-PCM)
 Optical dielectric constant (eps_inf) =  1.78
 CIS energy converged when residual is below 10e- 6
 ---------------------------------------------------
 Iter    Rts Conv    Rts Left    Ttl Dev     Max Dev
 ---------------------------------------------------
   1         0           7      0.001056    0.000167
   2         0           7      0.000438    0.000082
   3         0           7      0.000170    0.000044
   4         0           7      0.000105    0.000037
   5         1           6      0.000171    0.000080
   6         2           5      0.000136    0.000079
   7         3           4      0.000074    0.000047
   8         4           3      0.000022    0.000014
   9         6           1      0.000007    0.000004
  10         6           1      0.000003    0.000001
  11         7           0      0.000002    0.000000    Roots Converged
 ---------------------------------------------------
 Triplets done: starting singlet calculation
 ---------------------------------------------------
 Iter    Rts Conv    Rts Left    Ttl Dev     Max Dev
 ---------------------------------------------------
  12         0           7      0.002334    0.000579
  13         0           7      0.000714    0.000140
  14         0           7      0.000330    0.000073
  15         0           7      0.000212    0.000054
  16         0           7      0.000135    0.000065
  17         1           6      0.000094    0.000062
  18         3           4      0.000050    0.000038
  19         5           2      0.000029    0.000022
  20         5           2      0.000013    0.000008
  21         6           1      0.000006    0.000003
  22         6           1      0.000004    0.000002
  23         7           0      0.000004    0.000001    Roots Converged
 ---------------------------------------------------
 
 ---------------------------------------------------
         TDDFT/TDA Excitation Energies              
 ---------------------------------------------------

 Excited state   1: excitation energy (eV) =       1.6292
 Total energy for state   1:                  -953.61289331 au
    Multiplicity: Triplet
    Trans. Mom.:  0.0000 X   0.0000 Y   0.0000 Z
    Strength   :     0.0000000000
    D(   65) --> V(    1) amplitude =  0.1088
    D(   69) --> V(    1) amplitude =  0.0841
    D(   70) --> V(    1) amplitude =  0.9689

 Excited state   2: excitation energy (eV) =       2.8080
 Total energy for state   2:                  -953.56957163 au
    Multiplicity: Singlet
    Trans. Mom.: -2.7839 X  -1.8604 Y  -0.2787 Z
    Strength   :     0.7766247015
    D(   68) --> V(    1) amplitude =  0.1149
    D(   69) --> V(    1) amplitude =  0.1616
    D(   70) --> V(    1) amplitude =  0.9615

 Excited state   3: excitation energy (eV) =       3.0161
 Total energy for state   3:                  -953.56192517 au
    Multiplicity: Triplet
    Trans. Mom.:  0.0000 X   0.0000 Y   0.0000 Z
    Strength   :     0.0000000000
    D(   64) --> V(    1) amplitude =  0.0970
    D(   68) --> V(    1) amplitude =  0.3108
    D(   68) --> V(    2) amplitude =  0.1152
    D(   68) --> V(    7) amplitude = -0.1941
    D(   69) --> V(    1) amplitude =  0.8326
    D(   70) --> V(    2) amplitude =  0.3037
    D(   70) --> V(    7) amplitude =  0.0769

 Excited state   4: excitation energy (eV) =       3.2088
 Total energy for state   4:                  -953.55484347 au
    Multiplicity: Triplet
    Trans. Mom.:  0.0000 X   0.0000 Y   0.0000 Z
    Strength   :     0.0000000000
    D(   65) --> V(    1) amplitude =  0.2100
    D(   66) --> V(    3) amplitude = -0.0782
    D(   68) --> V(    1) amplitude =  0.7448
    D(   68) --> V(   10) amplitude = -0.1138
    D(   69) --> V(    1) amplitude = -0.0980
    D(   69) --> V(    2) amplitude =  0.0711
    D(   69) --> V(    7) amplitude = -0.2195
    D(   70) --> V(    2) amplitude = -0.5070
    D(   70) --> V(    3) amplitude =  0.0854
    D(   70) --> V(   10) amplitude =  0.0794

 Excited state   5: excitation energy (eV) =       3.7805
 Total energy for state   5:                  -953.53383574 au
    Multiplicity: Triplet
    Trans. Mom.:  0.0000 X   0.0000 Y   0.0000 Z
    Strength   :     0.0000000000
    D(   67) --> V(    1) amplitude =  0.8637
    D(   67) --> V(    2) amplitude =  0.3292
    D(   67) --> V(    3) amplitude = -0.0788
    D(   67) --> V(   10) amplitude = -0.2475
    D(   67) --> V(   27) amplitude =  0.1092
    D(   68) --> V(    1) amplitude =  0.1153
    D(   69) --> V(    1) amplitude = -0.0845
    D(   70) --> V(    2) amplitude =  0.1042

 Excited state   6: excitation energy (eV) =       3.8036
 Total energy for state   6:                  -953.53298616 au
    Multiplicity: Singlet
    Trans. Mom.:  1.3996 X   0.9139 Y   0.1521 Z
    Strength   :     0.2625289284
    D(   65) --> V(    1) amplitude = -0.1398
    D(   68) --> V(    1) amplitude =  0.2830
    D(   68) --> V(    2) amplitude =  0.0951
    D(   69) --> V(    1) amplitude =  0.9045
    D(   69) --> V(    2) amplitude =  0.0773
    D(   70) --> V(    1) amplitude = -0.1781
    D(   70) --> V(    2) amplitude =  0.1203

 Excited state   7: excitation energy (eV) =       3.8275
 Total energy for state   7:                  -953.53210551 au
    Multiplicity: Triplet
    Trans. Mom.:  0.0000 X   0.0000 Y   0.0000 Z
    Strength   :     0.0000000000
    D(   61) --> V(    1) amplitude =  0.0844
    D(   64) --> V(    1) amplitude =  0.0803
    D(   65) --> V(    1) amplitude = -0.2093
    D(   65) --> V(    2) amplitude =  0.1044
    D(   65) --> V(    7) amplitude = -0.0767
    D(   66) --> V(    3) amplitude = -0.0740
    D(   67) --> V(    1) amplitude = -0.1856
    D(   68) --> V(    1) amplitude =  0.3238
    D(   68) --> V(    2) amplitude = -0.1506
    D(   69) --> V(    1) amplitude = -0.3652
    D(   69) --> V(    2) amplitude =  0.3022
    D(   69) --> V(    3) amplitude = -0.0853
    D(   70) --> V(    2) amplitude =  0.5277
    D(   70) --> V(    7) amplitude =  0.3825
    D(   70) --> V(   10) amplitude = -0.1834
    D(   70) --> V(   17) amplitude = -0.0780

 Excited state   8: excitation energy (eV) =       4.0399
 Total energy for state   8:                  -953.52430299 au
    Multiplicity: Singlet
    Trans. Mom.:  0.0391 X   0.0109 Y   0.0195 Z
    Strength   :     0.0002005349
    D(   67) --> V(    1) amplitude =  0.9110
    D(   67) --> V(    2) amplitude =  0.2939
    D(   67) --> V(   10) amplitude = -0.2147
    D(   67) --> V(   27) amplitude =  0.0869
    D(   68) --> V(    1) amplitude =  0.0920

 Excited state   9: excitation energy (eV) =       4.1060
 Total energy for state   9:                  -953.52187047 au
    Multiplicity: Triplet
    Trans. Mom.:  0.0000 X   0.0000 Y   0.0000 Z
    Strength   :     0.0000000000
    D(   54) --> V(    1) amplitude =  0.0849
    D(   64) --> V(    1) amplitude =  0.1204
    D(   65) --> V(    1) amplitude =  0.6397
    D(   65) --> V(    2) amplitude =  0.0876
    D(   66) --> V(    2) amplitude =  0.0774
    D(   66) --> V(    3) amplitude =  0.2162
    D(   68) --> V(    1) amplitude =  0.1220
    D(   68) --> V(    2) amplitude =  0.1963
    D(   68) --> V(    7) amplitude = -0.1204
    D(   68) --> V(   10) amplitude =  0.0938
    D(   69) --> V(    1) amplitude = -0.2177
    D(   69) --> V(    2) amplitude = -0.3056
    D(   69) --> V(    7) amplitude =  0.0756
    D(   69) --> V(   10) amplitude = -0.0849
    D(   70) --> V(    2) amplitude =  0.4196
    D(   70) --> V(    7) amplitude = -0.0907
    D(   70) --> V(   10) amplitude =  0.1780

 Excited state  10: excitation energy (eV) =       4.2601
 Total energy for state  10:                  -953.51620988 au
    Multiplicity: Triplet
    Trans. Mom.:  0.0000 X   0.0000 Y   0.0000 Z
    Strength   :     0.0000000000
    D(   61) --> V(    3) amplitude =  0.0746
    D(   65) --> V(    1) amplitude = -0.1281
    D(   66) --> V(    1) amplitude = -0.5253
    D(   66) --> V(    2) amplitude =  0.2416
    D(   66) --> V(    3) amplitude = -0.1007
    D(   66) --> V(    7) amplitude = -0.1338
    D(   66) --> V(   10) amplitude =  0.0831
    D(   68) --> V(    3) amplitude =  0.2858
    D(   69) --> V(    2) amplitude = -0.0747
    D(   69) --> V(    3) amplitude = -0.3643
    D(   70) --> V(    3) amplitude =  0.5846
    D(   70) --> V(    7) amplitude = -0.0731

 Excited state  11: excitation energy (eV) =       4.4400
 Total energy for state  11:                  -953.50959857 au
    Multiplicity: Singlet
    Trans. Mom.: -0.4742 X  -0.5998 Y   0.4263 Z
    Strength   :     0.0833684946
    D(   65) --> V(    1) amplitude =  0.0879
    D(   67) --> V(    1) amplitude = -0.0827
    D(   68) --> V(    1) amplitude =  0.7742
    D(   69) --> V(    1) amplitude = -0.3182
    D(   69) --> V(    2) amplitude =  0.1828
    D(   70) --> V(    2) amplitude =  0.4186
    D(   70) --> V(    7) amplitude =  0.1900

 Excited state  12: excitation energy (eV) =       4.7024
 Total energy for state  12:                  -953.49995340 au
    Multiplicity: Singlet
    Trans. Mom.: -0.0304 X   0.0813 Y  -0.1744 Z
    Strength   :     0.0043713741
    D(   66) --> V(    1) amplitude =  0.7206
    D(   66) --> V(    2) amplitude = -0.2316
    D(   66) --> V(    7) amplitude =  0.1262
    D(   68) --> V(    3) amplitude =  0.2001
    D(   69) --> V(    2) amplitude = -0.0801
    D(   69) --> V(    3) amplitude = -0.2416
    D(   70) --> V(    2) amplitude =  0.1564
    D(   70) --> V(    3) amplitude =  0.5036

 Excited state  13: excitation energy (eV) =       5.0145
 Total energy for state  13:                  -953.48848392 au
    Multiplicity: Singlet
    Trans. Mom.: -0.5151 X   0.7995 Y  -1.6627 Z
    Strength   :     0.4507587275
    D(   64) --> V(    1) amplitude =  0.0810
    D(   65) --> V(    1) amplitude =  0.1823
    D(   66) --> V(    1) amplitude = -0.1593
    D(   66) --> V(    3) amplitude =  0.0922
    D(   68) --> V(    1) amplitude = -0.4472
    D(   68) --> V(    7) amplitude = -0.1527
    D(   69) --> V(   10) amplitude = -0.0799
    D(   70) --> V(    2) amplitude =  0.7485
    D(   70) --> V(    7) amplitude =  0.2692

 Excited state  14: excitation energy (eV) =       5.2316
 Total energy for state  14:                  -953.48050887 au
    Multiplicity: Singlet
    Trans. Mom.:  0.1865 X  -0.0682 Y   0.3010 Z
    Strength   :     0.0166649621
    D(   66) --> V(    1) amplitude = -0.2998
    D(   70) --> V(    3) amplitude =  0.4391
    D(   70) --> V(    4) amplitude =  0.7346
    D(   70) --> V(    8) amplitude =  0.2576
    D(   70) --> V(    9) amplitude = -0.1076
    D(   70) --> V(   11) amplitude = -0.1817
    D(   70) --> V(   12) amplitude = -0.0942
 
 ---------------------------------------------------

 Direct TDDFT calculation will be performed
 Exchange:     0.1900 Hartree-Fock + 0.3500 B88 + 0.4600 muB88 + LR-HF
 Correlation:  0.1900 VWN5 + 0.8100 LYP
 Using SG-1 standard quadrature grid
 ---------------------------------------------------
 Iter    Rts Conv    Rts Left    Ttl Dev     Max Dev
 ---------------------------------------------------
   1         0           7      0.001134    0.000184
   2         0           7      0.000344    0.000072
   3         0           7      0.000216    0.000051
   4         0           7      0.000117    0.000035
   5         0           7      0.000081    0.000026
   6         0           7      0.000035    0.000012
   7         2           5      0.000030    0.000009
   8         3           4      0.000012    0.000005
   9         4           3      0.000009    0.000004
  10         6           1      0.000004    0.000002
  11         6           1      0.000004    0.000001
  12         7           0      0.000003    0.000000    Roots Converged
 ---------------------------------------------------
 Triplets done: starting singlet calculation
 ---------------------------------------------------
 Iter    Rts Conv    Rts Left    Ttl Dev     Max Dev
 ---------------------------------------------------
  13         0           7      0.001284    0.000290
  14         0           7      0.000579    0.000269
  15         0           7      0.000279    0.000098
  16         0           7      0.000155    0.000042
  17         0           7      0.000116    0.000048
  18         0           7      0.000064    0.000025
  19         1           6      0.000042    0.000021
  20         3           4      0.000024    0.000011
  21         5           2      0.000013    0.000005
  22         5           2      0.000011    0.000005
  23         5           2      0.000009    0.000004
  24         5           2      0.000008    0.000004
  25         6           1      0.000006    0.000003
  26         6           1      0.000004    0.000001
  27         7           0      0.000004    0.000001    Roots Converged
 ---------------------------------------------------
 
 ---------------------------------------------------
             TDDFT Excitation Energies              
 ---------------------------------------------------

 Excited state   1: excitation energy (eV) =        1.3211
 Total energy for state   1:                  -953.62421542 au
    Multiplicity: Triplet 
    Trans. Mom.:  0.0000 X   0.0000 Y   0.0000 Z
    Strength   :     0.0000000000
    X: D(   64) --> V(    1) amplitude = -0.0904
    X: D(   65) --> V(    1) amplitude =  0.1173
    X: D(   65) --> V(   10) amplitude =  0.0734
    X: D(   68) --> V(    1) amplitude = -0.0878
    X: D(   68) --> V(    2) amplitude = -0.0981
    X: D(   69) --> V(    2) amplitude =  0.0790
    X: D(   70) --> V(    1) amplitude =  1.0007
    Y: D(   70) --> V(    1) amplitude =  0.2639

 Excited state   2: excitation energy (eV) =        2.6165
 Total energy for state   2:                  -953.57660925 au
    Multiplicity: Singlet 
    Trans. Mom.: -2.5319 X  -1.6731 Y  -0.2809 Z
    Strength   :     0.5954446477
    X: D(   68) --> V(    1) amplitude =  0.0866
    X: D(   69) --> V(    1) amplitude =  0.1548
    X: D(   70) --> V(    1) amplitude =  0.9774

 Excited state   3: excitation energy (eV) =        2.8013
 Total energy for state   3:                  -953.56982065 au
    Multiplicity: Triplet 
    Trans. Mom.:  0.0000 X   0.0000 Y   0.0000 Z
    Strength   :     0.0000000000
    X: D(   64) --> V(    1) amplitude =  0.1144
    X: D(   66) --> V(    3) amplitude =  0.1192
    X: D(   68) --> V(    1) amplitude =  0.2683
    X: D(   68) --> V(    2) amplitude =  0.1178
    X: D(   68) --> V(    7) amplitude = -0.2214
    X: D(   69) --> V(    1) amplitude =  0.7948
    Y: D(   69) --> V(    1) amplitude =  0.0754
    X: D(   69) --> V(   10) amplitude = -0.0878
    X: D(   70) --> V(    2) amplitude =  0.4072
    Y: D(   70) --> V(    2) amplitude =  0.0800
    X: D(   70) --> V(    7) amplitude =  0.0904

 Excited state   4: excitation energy (eV) =        2.9997
[...]
      XZZZ    -143.5402   YZZZ     -37.7088   ZZZZ   -1322.9297
    5th-Order Moments (Debye-Ang^4)
       500   38549.3379    410   -7965.8268    320    -667.0191
       230   -4858.2689    140   -6039.1567    050  -39515.6067
       401    8427.7878    311     586.6819    221    1497.3907
       131    1543.8216    041    2727.1850    302    5590.3353
       212   -1731.3230    122   -1317.6650    032   -5186.1015
       203    1175.1195    113    -224.7364    023    -321.2410
       104    2389.0037    014   -1921.3198    005   -2095.6748
 -----------------------------------------------------------------
 -----------------------------------------------------------------
                 RPA Excited-State Multipoles, State    4   
                  LMN = < X^L Y^M Z^N >
 -----------------------------------------------------------------
    Charge (ESU x 10^10)
                 0.0000
    Dipole Moment (Debye)
         X       7.1794      Y      -0.3608      Z       9.8189
       Tot      12.1690
    Quadrupole Moments (Debye-Ang)
        XX    -138.6064     XY      31.0527     YY     -95.5488
        XZ     -26.3527     YZ       7.1156     ZZ    -106.2026
    Octopole Moments (Debye-Ang^2)
       XXX     610.4209    XXY    -259.9017    XYY     210.6173
       YYY    -605.6965    XXZ     169.5467    XYZ      53.0300
       YYZ      21.3464    XZZ     174.5231    YZZ    -225.3314
       ZZZ     -59.2213
    Hexadecapole Moments (Debye-Ang^3)
      XXXX   -6814.0233   XXXY    -142.5864   XXYY   -1403.8972
      XYYY    -236.9822   YYYY   -5164.5227   XXXZ    -963.9521
      XXYZ     118.4351   XYYZ     239.8131   YYYZ     369.1285
      XXZZ   -1480.7419   XYZZ    -244.3077   YYZZ   -1154.2406
      XZZZ    -129.2995   YZZZ     -27.3355   ZZZZ   -1295.3961
    5th-Order Moments (Debye-Ang^4)
       500   36835.0365    410   -7823.5440    320    -556.5701
       230   -4806.5548    140   -5846.2726    050  -39205.5373
       401    7552.1770    311     588.9760    221    1490.3830
       131    1513.2918    041    2705.1048    302    5324.7504
       212   -1701.6038    122   -1316.0149    032   -5179.2468
       203    1057.9809    113    -239.8041    023    -312.2968
       104    2327.8739    014   -1894.6606    005   -2057.3479
 -----------------------------------------------------------------
 -----------------------------------------------------------------
                 RPA Excited-State Multipoles, State    5   
                  LMN = < X^L Y^M Z^N >
 -----------------------------------------------------------------
    Charge (ESU x 10^10)
                 0.0000
    Dipole Moment (Debye)
         X      10.5129      Y       2.2946      Z       9.5693
       Tot      14.3999
    Quadrupole Moments (Debye-Ang)
        XX    -153.5311     XY      29.5227     YY     -88.6225
        XZ     -24.8359     YZ       7.5086     ZZ    -106.3523
    Octopole Moments (Debye-Ang^2)
       XXX     697.0254    XXY    -241.7531    XYY     220.8308
       YYY    -573.5334    XXZ     163.1053    XYZ      52.6219
       YYZ      21.9841    XZZ     177.4927    YZZ    -223.3338
       ZZZ     -59.7830
    Hexadecapole Moments (Debye-Ang^3)
      XXXX   -7232.0050   XXXY    -171.2485   XXYY   -1377.5183
      XYYY    -190.5963   YYYY   -5019.3441   XXXZ    -942.2494
      XXYZ     118.1410   XYYZ     239.8246   YYYZ     371.3125
      XXZZ   -1499.3658   XYZZ    -246.9964   YYZZ   -1149.4804
      XZZZ    -130.2576   YZZZ     -27.1798   ZZZZ   -1298.6093
    5th-Order Moments (Debye-Ang^4)
       500   39094.8491    410   -7580.7541    320    -416.0707
       230   -4592.7952    140   -5528.2906    050  -38444.5521
       401    7469.0179    311     569.2413    221    1469.3773
       131    1495.0768    041    2696.3521    302    5437.5396
       212   -1686.7156    122   -1307.8912    032   -5153.6852
       203    1061.8929    113    -246.4341    023    -313.9516
       104    2339.9242    014   -1893.6037    005   -2056.3652
 -----------------------------------------------------------------
 -----------------------------------------------------------------
                 RPA Excited-State Multipoles, State    6   
                  LMN = < X^L Y^M Z^N >
 -----------------------------------------------------------------
    Charge (ESU x 10^10)
                 0.0000
    Dipole Moment (Debye)
         X       5.7545      Y      -0.4834      Z       8.4465
       Tot      10.2318
    Quadrupole Moments (Debye-Ang)
        XX    -132.2148     XY      34.3772     YY     -91.2145
        XZ     -30.7051     YZ       3.4453     ZZ    -111.9484
    Octopole Moments (Debye-Ang^2)
       XXX     609.5622    XXY    -263.8106    XYY     213.4348
       YYY    -587.7246    XXZ     206.6808    XYZ      59.5375
       YYZ      17.6634    XZZ     186.7063    YZZ    -231.5152
       ZZZ     -66.4405
    Hexadecapole Moments (Debye-Ang^3)
      XXXX   -6907.6423   XXXY     -75.8726   XXYY   -1355.5330
      XYYY    -192.1469   YYYY   -5063.6389   XXXZ   -1187.3547
      XXYZ     106.0340   XYYZ     242.2321   YYYZ     359.3163
      XXZZ   -1531.0835   XYZZ    -226.9908   YYZZ   -1155.7713
      XZZZ    -148.9019   YZZZ     -44.8918   ZZZZ   -1336.3378
    5th-Order Moments (Debye-Ang^4)
       500   37929.0709    410   -8108.1585    320    -566.5382
       230   -4666.9405    140   -5614.1942    050  -38678.2654
       401    8802.0494    311     592.6191    221    1496.3413
       131    1530.1905    041    2688.6689    302    5610.3460
       212   -1756.0755    122   -1306.2933    032   -5174.7553
       203    1224.2931    113    -208.2667    023    -325.3339
       104    2408.4633    014   -1940.5525    005   -2125.3001
 -----------------------------------------------------------------
 -----------------------------------------------------------------
                 RPA Excited-State Multipoles, State    7   
                  LMN = < X^L Y^M Z^N >
 -----------------------------------------------------------------
    Charge (ESU x 10^10)
                 0.0000
    Dipole Moment (Debye)
         X      -1.0464      Y      -1.4104      Z       2.3153
       Tot       2.9060
    Quadrupole Moments (Debye-Ang)
        XX     -87.5835     XY      22.8193     YY    -104.1804
        XZ       6.2656     YZ       3.3414     ZZ    -101.1992
    Octopole Moments (Debye-Ang^2)
       XXX     281.3020    XXY    -240.2531    XYY     195.7701
       YYY    -642.4444    XXZ       4.0264    XYZ      67.8959
       YYZ      16.2640    XZZ     128.7791    YZZ    -221.3792
       ZZZ     -95.1195
    Hexadecapole Moments (Debye-Ang^3)
      XXXX   -4903.5150   XXXY    -304.8128   XXYY   -1438.8877
      XYYY    -323.6222   YYYY   -5359.5830   XXXZ     -77.7122
      XXYZ      56.6319   XYYZ     267.5766   YYYZ     372.3697
      XXZZ   -1209.8933   XYZZ    -279.0354   YYZZ   -1155.7234
      XZZZ      18.8283   YZZZ     -50.2011   ZZZZ   -1274.1620
    5th-Order Moments (Debye-Ang^4)
       500   25480.5595    410   -7264.3190    320    -786.7604
       230   -5038.2824    140   -6312.6557    050  -40256.7773
       401    2755.7282    311     927.4236    221    1417.2260
       131    1569.2876    041    2752.3030    302    3772.7490
       212   -1529.7483    122   -1346.4943    032   -5185.2416
       203     315.8098    113    -153.8097    023    -343.9157
       104    2101.7442    014   -1870.1749    005   -2280.6593
 -----------------------------------------------------------------
 -----------------------------------------------------------------
                 RPA Excited-State Multipoles, State    8   
                  LMN = < X^L Y^M Z^N >
 -----------------------------------------------------------------
    Charge (ESU x 10^10)
                 0.0000
    Dipole Moment (Debye)
         X      11.7814      Y       2.4417      Z      10.6658
       Tot      16.0786
    Quadrupole Moments (Debye-Ang)
        XX    -159.6046     XY      30.1031     YY     -89.2981
        XZ     -26.5148     YZ       9.4580     ZZ    -105.9662
    Octopole Moments (Debye-Ang^2)
       XXX     726.3631    XXY    -249.1732    XYY     218.1776
       YYY    -580.2667    XXZ     177.4735    XYZ      51.0819
       YYZ      24.2318    XZZ     187.9566    YZZ    -219.0101
       ZZZ     -52.5864
    Hexadecapole Moments (Debye-Ang^3)
      XXXX   -7406.8983   XXXY    -150.2012   XXYY   -1393.1723
      XYYY    -209.9618   YYYY   -5063.5222   XXXZ   -1026.4358
      XXYZ     127.2200   XYYZ     238.6356   YYYZ     374.4152
      XXZZ   -1539.5692   XYZZ    -243.7790   YYZZ   -1144.0137
      XZZZ    -129.9752   YZZZ     -10.9572   ZZZZ   -1291.9909
    5th-Order Moments (Debye-Ang^4)
       500   40001.2134    410   -7794.5909    320    -467.9429
       230   -4696.6603    140   -5676.0275    050  -38737.0882
       401    7955.1592    311     525.1850    221    1478.3061
       131    1493.3473    041    2697.8944    302    5630.6085
       212   -1704.1353    122   -1308.5731    032   -5151.8118
       203    1113.5276    113    -242.2554    023    -283.9098
       104    2410.0383    014   -1855.6391    005   -2006.5894
 -----------------------------------------------------------------
 -----------------------------------------------------------------
                 RPA Excited-State Multipoles, State    9   
                  LMN = < X^L Y^M Z^N >
 -----------------------------------------------------------------
    Charge (ESU x 10^10)
                 0.0000
    Dipole Moment (Debye)
         X      -2.0089      Y      -1.7264      Z       1.7087
       Tot       3.1520
    Quadrupole Moments (Debye-Ang)
        XX     -82.8222     XY      22.1365     YY    -105.4539
        XZ       8.2023     YZ       2.9048     ZZ    -101.3368
    Octopole Moments (Debye-Ang^2)
       XXX     255.5478    XXY    -238.8627    XYY     193.8437
       YYY    -647.8039    XXZ      -4.0926    XYZ      69.0750
       YYZ      15.6728    XZZ     127.1919    YZZ    -221.9273
       ZZZ     -97.2877
    Hexadecapole Moments (Debye-Ang^3)
      XXXX   -4777.9391   XXXY    -319.2632   XXYY   -1441.2194
      XYYY    -332.2281   YYYY   -5384.2170   XXXZ     -39.2984
      XXYZ      52.5067   XYYZ     268.9001   YYYZ     371.4793
      XXZZ   -1199.5678   XYZZ    -279.3251   YYZZ   -1157.3316
      XZZZ      24.8664   YZZZ     -51.9277   ZZZZ   -1276.8263
    5th-Order Moments (Debye-Ang^4)
       500   24836.7975    410   -7212.1006    320    -810.4221
       230   -5060.0084    140   -6357.9841    050  -40378.2080
       401    2567.4405    311     947.0842    221    1415.7618
       131    1573.2148    041    2752.5569    302    3714.6152
       212   -1527.6837    122   -1347.2051    032   -5190.7592
       203     292.5778    113    -149.5197    023    -346.2218
       104    2102.5271    014   -1873.0205    005   -2292.5897
 -----------------------------------------------------------------
 -----------------------------------------------------------------
                 RPA Excited-State Multipoles, State   10   
                  LMN = < X^L Y^M Z^N >
 -----------------------------------------------------------------
    Charge (ESU x 10^10)
                 0.0000
    Dipole Moment (Debye)
         X       9.6272      Y       0.7428      Z      10.9321
       Tot      14.5858
    Quadrupole Moments (Debye-Ang)
        XX    -154.5196     XY      29.2508     YY     -94.5994
        XZ     -29.5311     YZ       8.2183     ZZ    -107.8934
    Octopole Moments (Debye-Ang^2)
       XXX     701.5266    XXY    -250.3599    XYY     217.3701
       YYY    -599.0751    XXZ     178.4924    XYZ      46.4752
       YYZ      19.9389    XZZ     178.1485    YZZ    -230.5153
       ZZZ     -54.6171
    Hexadecapole Moments (Debye-Ang^3)
      XXXX   -7285.8797   XXXY    -140.0311   XXYY   -1382.1511
      XYYY    -193.8920   YYYY   -5123.7507   XXXZ   -1030.6163
      XXYZ     120.8520   XYYZ     221.2682   YYYZ     353.0205
      XXZZ   -1527.8488   XYZZ    -257.7729   YYZZ   -1184.6160
      XZZZ    -144.8920   YZZZ     -23.7174   ZZZZ   -1303.0198
    5th-Order Moments (Debye-Ang^4)
       500   39410.1821    410   -7745.7540    320    -378.8274
       230   -4573.4610    140   -5501.7019    050  -38891.8207
       401    7867.7513    311     484.0536    221    1429.4470
       131    1405.5888    041    2579.6706    302    5543.4071
       212   -1724.6023    122   -1360.3874    032   -5321.8225
       203    1124.4350    113    -256.4384    023    -315.6740
       104    2346.0193    014   -1916.2851    005   -2029.5997
 -----------------------------------------------------------------
 -----------------------------------------------------------------
                 RPA Excited-State Multipoles, State   11   
                  LMN = < X^L Y^M Z^N >
 -----------------------------------------------------------------
    Charge (ESU x 10^10)
                 0.0000
    Dipole Moment (Debye)
         X      10.3177      Y       3.1614      Z       7.9938
       Tot      13.4295
    Quadrupole Moments (Debye-Ang)
        XX    -138.7780     XY      38.4280     YY     -78.2139
        XZ     -22.5787     YZ       5.2179     ZZ    -107.8990
    Octopole Moments (Debye-Ang^2)
       XXX     642.5445    XXY    -230.5097    XYY     255.5387
       YYY    -512.0572    XXZ     154.7364    XYZ      54.5621
       YYZ      16.4085    XZZ     177.5755    YZZ    -224.6639
       ZZZ     -67.3865
    Hexadecapole Moments (Debye-Ang^3)
      XXXX   -6861.3940   XXXY    -104.2983   XXYY   -1283.6220
      XYYY      -3.8201   YYYY   -4664.4460   XXXZ    -909.7781
      XXYZ     103.0205   XYYZ     233.2173   YYYZ     347.5153
      XXZZ   -1476.2816   XYZZ    -235.8380   YYZZ   -1144.1420
      XZZZ    -115.2659   YZZZ     -34.7730   ZZZZ   -1312.4154
    5th-Order Moments (Debye-Ang^4)
       500   37420.4478    410   -7450.2417    320    -163.2177
       230   -4113.8269    140   -4539.4748    050  -36438.3412
       401    7264.7477    311     595.5336    221    1439.9466
       131    1451.0455    041    2579.6911    302    5311.6219
       212   -1686.9565    122   -1279.5114    032   -5113.9193
       203    1015.8828    113    -228.5324    023    -323.6081
       104    2351.6007    014   -1906.7643    005   -2119.3229
 -----------------------------------------------------------------
 -----------------------------------------------------------------
                 RPA Excited-State Multipoles, State   12   
                  LMN = < X^L Y^M Z^N >
 -----------------------------------------------------------------
    Charge (ESU x 10^10)
                 0.0000
    Dipole Moment (Debye)
         X      12.8790      Y       3.7157      Z       9.8408
       Tot      16.6288
    Quadrupole Moments (Debye-Ang)
        XX    -157.5558     XY      35.9319     YY     -80.2081
        XZ     -27.3011     YZ       7.5206     ZZ    -107.6987
    Octopole Moments (Debye-Ang^2)
       XXX     724.4521    XXY    -246.5251    XYY     238.7458
       YYY    -536.0135    XXZ     180.7541    XYZ      53.2583
       YYZ      22.4406    XZZ     186.7336    YZZ    -221.6208
       ZZZ     -59.1270
    Hexadecapole Moments (Debye-Ang^3)
      XXXX   -7366.2045   XXXY    -127.2587   XXYY   -1375.0642
      XYYY    -132.3246   YYYY   -4865.8004   XXXZ   -1020.9349
      XXYZ     137.7292   XYYZ     253.8727   YYYZ     382.7629
      XXZZ   -1530.5587   XYZZ    -236.4092   YYZZ   -1139.8421
      XZZZ    -137.2793   YZZZ     -26.7168   ZZZZ   -1309.8301
    5th-Order Moments (Debye-Ang^4)
       500   39794.9497    410   -7799.7807    320    -397.3036
       230   -4613.5490    140   -5379.8304    050  -37899.2556
       401    7938.5339    311     543.6235    221    1522.4737
       131    1575.1945    041    2790.1419    302    5604.1884
       212   -1694.4911    122   -1275.0521    032   -5107.7100
       203    1121.9304    113    -241.8963    023    -312.4223
       104    2381.6613    014   -1899.6710    005   -2061.9689
 -----------------------------------------------------------------
 -----------------------------------------------------------------
                 RPA Excited-State Multipoles, State   13   
                  LMN = < X^L Y^M Z^N >
 -----------------------------------------------------------------
    Charge (ESU x 10^10)
                 0.0000
    Dipole Moment (Debye)
         X       9.0868      Y       0.9555      Z       9.8700
       Tot      13.4499
    Quadrupole Moments (Debye-Ang)
        XX    -146.2444     XY      31.7788     YY     -91.7426
        XZ     -26.7028     YZ       6.8908     ZZ    -106.2930
    Octopole Moments (Debye-Ang^2)
       XXX     650.3744    XXY    -257.4386    XYY     217.4524
       YYY    -589.0588    XXZ     168.4603    XYZ      51.1411
       YYZ      18.5473    XZZ     177.7532    YZZ    -222.8016
       ZZZ     -60.2436
    Hexadecapole Moments (Debye-Ang^3)
      XXXX   -7030.1888   XXXY    -150.1757   XXYY   -1414.3481
      XYYY    -221.5404   YYYY   -5103.4799   XXXZ    -967.1898
      XXYZ     114.5555   XYYZ     229.6272   YYYZ     350.0461
      XXZZ   -1493.5231   XYZZ    -242.2243   YYZZ   -1145.8351
      XZZZ    -131.4380   YZZZ     -29.8127   ZZZZ   -1306.3564
    5th-Order Moments (Debye-Ang^4)
       500   38029.9759    410   -7802.4366    320    -488.3557
       230   -4795.7166    140   -5775.7466    050  -38965.9045
       401    7566.7140    311     572.0245    221    1475.8855
       131    1466.3613    041    2595.6280    302    5397.2824
       212   -1699.4633    122   -1301.5344    032   -5141.3351
       203    1072.2218    113    -240.2519    023    -319.3285
       104    2362.0056    014   -1898.4251    005   -2073.6622
 -----------------------------------------------------------------
 -----------------------------------------------------------------
                 RPA Excited-State Multipoles, State   14   
                  LMN = < X^L Y^M Z^N >
 -----------------------------------------------------------------
    Charge (ESU x 10^10)
                 0.0000
    Dipole Moment (Debye)
         X       9.7772      Y       1.9161      Z       9.9176
       Tot      14.0579
    Quadrupole Moments (Debye-Ang)
        XX    -151.7621     XY      31.5167     YY     -93.9803
        XZ     -22.8673     YZ       7.1398     ZZ    -110.8154
    Octopole Moments (Debye-Ang^2)
       XXX     685.8405    XXY    -250.3206    XYY     234.2467
       YYY    -594.3875    XXZ     154.4097    XYZ      56.2657
       YYZ      14.7987    XZZ     188.0998    YZZ    -230.1135
       ZZZ     -68.5019
    Hexadecapole Moments (Debye-Ang^3)
      XXXX   -7236.8331   XXXY    -150.6851   XXYY   -1425.8640
      XYYY    -151.9497   YYYY   -5143.7457   XXXZ    -911.5214
      XXYZ     104.4710   XYYZ     255.8865   YYYZ     344.4199
      XXZZ   -1546.2065   XYZZ    -240.3887   YYZZ   -1193.6576
      XZZZ    -107.1955   YZZZ     -40.4944   ZZZZ   -1388.4107
    5th-Order Moments (Debye-Ang^4)
       500   39125.8255    410   -7811.8734    320    -306.8781
       230   -4742.7034    140   -5357.5962    050  -39085.3690
       401    7297.2434    311     585.9159    221    1402.4188
       131    1534.5954    041    2569.7290    302    5609.5548
       212   -1725.5171    122   -1262.4255    032   -5319.1876
       203     976.0265    113    -223.3621    023    -401.8497
       104    2506.1924    014   -2004.6505    005   -2347.1343
 -----------------------------------------------------------------
 Total job time:  6256.83s(wall), 90497.53s(cpu) 
 Fri Jan 31 01:22:21 2025

        *************************************************************
        *                                                           *
        *  Thank you very much for using Q-Chem.  Have a nice day.  *
        *                                                           *
        *************************************************************


