
Running Job 1 of 1 Pelargonidin_Q1_tddft_full.in
qchem Pelargonidin_Q1_tddft_full.in_1438641.0 /data/brussel/103/vsc10365/activedata/TDDFTAnthocyanidines/qchem1438641/ 1
/apps/brussel/RL8/skylake/software/Q-Chem/6.2.0/exe/qcprog.exe_s Pelargonidin_Q1_tddft_full.in_1438641.0 /data/brussel/103/vsc10365/activedata/TDDFTAnthocyanidines/qchem1438641/
                  Welcome to Q-Chem
     A Quantum Leap Into The Future Of Chemistry


 Q-Chem 6.2, Q-Chem, Inc., Pleasanton, CA (2024)

 License issued to: SRG Prof. Dr. Frank De Proft, Vrije Universiteit Brussel

 E. Epifanovsky,  A. T. B. Gilbert,  Xintian Feng,  Joonho Lee,  Yuezhi Mao,  
 N. Mardirossian,  P. Pokhilko,  A. White,  M. Wormit,  M. P. Coons,  
 A. L. Dempwolff,  Zhengting Gan,  D. Hait,  P. R. Horn,  L. D. Jacobson,  
 I. Kaliman,  J. Kussmann,  A. W. Lange,  Ka Un Lao,  D. S. Levine,  Jie Liu,  
 S. C. McKenzie,  A. F. Morrison,  K. D. Nanda,  F. Plasser,  D. R. Rehn,  
 M. L. Vidal,  Zhi-Qiang You,  Ying Zhu,  Huseyin Aksu,  B. Alam,  
 B. Albrecht,  A. Aldossary,  E. Alguire,  J. H. Andersen,  
 J. E. Arias-Martinez,  V. Athavale,  D. Barton,  K. Begam,  A. Behn,  
 N. Bellonzi,  Y. A. Bernard,  E. J. Berquist,  H. Burton,  A. Carreras,  
 K. Carter-Fenk,  Mathew Chow,  Romit Chakraborty,  Chandrima Chakravarty,  
 Junhan Chen,  A. D. Chien,  K. D. Closser,  V. Cofer-Shabica,  L. Cunha,  
 S. Dasgupta,  Jia Deng,  Joseph Dickinson,  M. de Wergifosse,  
 M. Diedenhofen,  Hainam Do,  Wenjie Dou,  S. Ehlert,  Po-Tung Fang,  
 S. Fatehi,  Qingguo Feng,  Jonathan Fetherolf,  T. Friedhoff,  
 Thomas Froitzheim,  Sarai Folkestad,  B. Ganoe,  J. Gayvert,  Qinghui Ge,  
 G. Gidofalvi,  M. Gimferrer,  M. Goldey,  Montgomery Gray,  J. Gomes,  
 C. Gonzalez-Espinoza,  S. Gulania,  A. Gunina,  J. A. Gyamfi,  
 M. W. D. Hanson-Heine,  P. H. P. Harbach,  A. W. Hauser,  M. F. Herbst,  
 M. Hernandez Vera,  M. Hodecker,  Z. C. Holden,  S. Houck,  Xunkun Huang,  
 Kerwin Hui,  B. C. Huynh,  K. Ikeda,  M. Ivanov,  Nayanthara K. Jayadev,  
 Hyunjun Ji,  Zuxin Jin,  Hanjie Jiang,  Subrata Jana,  B. Kaduk,  
 S. Kaehler,  R. Kang,  K. Khistyaev,  Jaehoon Kim,  Yongbin Kim,  
 P. Klunzinger,  Z. Koczor-Benda,  Joong Hoon Koh,  D. Kosenkov,  
 Saikiran Kotaru,  L. Koulias,  T. Kowalczyk,  C. M. Krauter,  K. Kue,  
 A. Kunitsa,  T. Kus,  A. Landau,  K. V. Lawler,  D. Lefrancois,  S. Lehtola,  
 Rain Li,  Shaozhi Li,  Tao E. Li,  Yi-Pei Li,  Jiashu Liang,  M. Liebenthal,  
 Hung-Hsuan Lin,  You-Sheng Lin,  Fenglai Liu,  Kuan-Yu Liu,  Xiao Liu,  
 M. Loipersberger,  A. Luenser,  C. Malbon,  Aniket Mandal,  Manisha,  
 A. Manjanath,  P. Manohar,  E. Mansoor,  S. F. Manzer,  Shan-Ping Mao,  
 A. V. Marenich,  T. Markovich,  S. Mason,  F. Matz,  S. A. Maurer,  
 Samuel May,  Alexandra McIsaac,  P. F. McLaughlin,  M. F. S. J. Menger,  
 J.-M. Mewes,  S. A. Mewes,  P. Morgante,  Mohammad Mostafanejad,  
 Madhubani Mukherjee,  J. W. Mullinax,  Quyen Nguyen,  Avik Kumar Ojha,  
 K. J. Oosterbaan,  Eno Paenurk,  Xiaoliang Pan,  G. Paran,  V. Parravicini,  
 Alexander C. Paul,  Suranjan K. Paul,  F. Pavosevic,  Zheng Pei,  S. Prager,  
 E. I. Proynov,  E. Ramos,  B. Rana,  A. E. Rask,  A. Rettig,  R. M. Richard,  
 F. Rob,  E. Rossomme,  T. Scheele,  M. Scheurer,  M. Schneider,  
 P. E. Schneider,  Tim K. Schramm,  N. Sergueev,  S. M. Sharada,  
 Hengyuan Shen,  W. Skomorowski,  D. W. Small,  C. J. Stein,  
 Alistair J. Sterling,  Yingli Su,  Yu-Chuan Su,  E. J. Sundstrom,  
 J. Talbot,  Zhen Tao,  J. Thirman,  Hung-Yi Tsai,  T. Tsuchimochi,  
 N. M. Tubman,  C. Utku,  S. P. Veccham,  O. Vydrov,  Rahel Weiss,  
 J. Wenzel,  Jonathan Wong,  J. Witte,  H. Wu,  Yanze Wu,  A. Yamada,  
 Chou-Hsun Yang,  Kun Yao,  S. Yeganeh,  S. R. Yost,  Qi Yu,  A. Zech,  
 F. Zeller,  Chongxiao Zhao,  Igor Ying Zhang,  Xing Zhang,  Yu Zhang,  
 D. Zuev,  A. Aspuru-Guzik,  A. T. Bell,  N. A. Besley,  K. B. Bravaya,  
 B. R. Brooks,  D. Casanova,  Jeng-Da Chai,  Hsing-Ta Chen,  S. Coriani,  
 C. J. Cramer,  A. E. DePrince, III,  R. A. DiStasio Jr.,  A. Dreuw,  
 B. D. Dunietz,  T. R. Furlani,  W. A. Goddard III,  S. Grimme,  
 S. Hammes-Schiffer,  T. Head-Gordon,  W. J. Hehre,  Chao-Ping Hsu,  
 T.-C. Jagau,  Yousung Jung,  A. Klamt,  Jing Kong,  D. S. Lambrecht,  
 Xiangyuan Li,  WanZhen Liang,  N. J. Mayhall,  C. W. McCurdy,  J. B. Neaton,  
 T. Neudecker,  C. Ochsenfeld,  J. A. Parkhill,  R. Peverati,  
 V. A. Rassolov,  Haisheng Ren,  Yihan Shao,  L. V. Slipchenko,  
 R. P. Steele,  J. E. Subotnik,  A. J. W. Thom,  A. Tkatchenko,  
 D. G. Truhlar,  T. Van Voorhis,  Fan Wang,  T. A. Wesolowski,  K. B. Whaley,  
 H. L. Woodcock III,  P. M. Zimmerman,  S. Faraji,  P. M. W. Gill,  
 M. Head-Gordon,  J. M. Herbert,  A. I. Krylov

 Contributors to earlier versions of Q-Chem not listed above: 
 R. D. Adamson,  B. Austin,  R. Baer,  J. Baker,  G. J. O. Beran,  
 K. Brandhorst,  S. T. Brown,  E. F. C. Byrd,  Arup K. Chakraborty,  
 G. K. L. Chan,  Chun-Min Chang,  Yunqing Chen,  C.-L. Cheng,  
 Siu Hung Chien,  D. M. Chipman,  D. L. Crittenden,  H. Dachsel,  
 R. J. Doerksen,  A. D. Dutoi,  R. G. Edgar,  J. Fosso-Tande,  
 L. Fusti-Molnar,  D. Ghosh,  A. Ghysels,  A. Golubeva-Zadorozhnaya,  
 J. Gonthier,  M. S. Gordon,  S. R. Gwaltney,  G. Hawkins,  J. E. Herr,  
 A. Heyden,  S. Hirata,  E. G. Hohenstein,  G. Kedziora,  F. J. Keil,  
 C. Kelley,  Jihan Kim,  R. A. King,  R. Z. Khaliullin,  P. P. Korambath,  
 W. Kurlancheek,  A. Laurent,  A. M. Lee,  M. S. Lee,  S. V. Levchenko,  
 Ching Yeh Lin,  D. Liotard,  E. Livshits,  R. C. Lochan,  I. Lotan,  
 L. A. Martinez-Martinez,  P. E. Maslen,  N. Nair,  D. P. O'Neill,  
 D. Neuhauser,  E. Neuscamman,  C. M. Oana,  R. Olivares-Amaya,  R. Olson,  
 T. M. Perrine,  B. Peters,  P. A. Pieniazek,  A. Prociuk,  Y. M. Rhee,  
 J. Ritchie,  M. A. Rohrdanz,  E. Rosta,  N. J. Russ,  H. F. Schaefer III,  
 M. W. Schmidt,  N. E. Schultz,  S. Sharma,  N. Shenvi,  C. D. Sherrill,  
 A. C. Simmonett,  A. Sodt,  T. Stein,  D. Stuck,  K. S. Thanthiriwatte,  
 V. Vanovschi,  L. Vogt,  Tao Wang,  A. Warshel,  M. A. Watson,  
 C. F. Williams,  Q. Wu,  X. Xu,  Jun Yang,  W. Zhang,  Yan Zhao

   Please cite Q-Chem as follows:
  "Software for the frontiers of quantum chemistry:
   An overview of developments in the Q-Chem 5 package"
   J. Chem. Phys. 155, 084801 (2021)
   https://doi.org/10.1063/5.0055522 (open access)

 Q-Chem 6.2.0 for Intel X86 EM64T Linux

 Parts of Q-Chem use Armadillo 9.900.5 (Nocturnal Misbehaviour).
 http://arma.sourceforge.net/

 Q-Chem begins on Thu Jan 30 21:59:21 2025  

 Host: 
0

     Scratch files written to /data/brussel/103/vsc10365/activedata/TDDFTAnthocyanidines/qchem1438641//
 May224 |scratch|qcdevops|jenkins|workspace|build_RNUM -1
 Processing $rem in /apps/brussel/RL8/skylake/software/Q-Chem/6.2.0/config/preferences:
 Processing $rem in /user/brussel/103/vsc10365/.qchemrc:
 Symmetry turned off for PCM/SM12/SMD calculation

 Checking the input file for inconsistencies... 	...done.

--------------------------------------------------------------
User input:
--------------------------------------------------------------
$comment
TDDFT calculation of pelargonidin Q1 structure
nprocs=16
mem=64gb
$end

$molecule
0 1
C   -4.4242662    0.3428700   -1.0586814
C   -4.6462430   -0.4460260    0.0789714
C   -3.7696416   -0.3766015    1.1426319
C   -2.6482979    0.4847680    1.0944877
C   -2.4771150    1.2515241   -0.0662691
C   -3.3372578    1.2022446   -1.1486865
C   -1.6908052    0.6247489    2.1229615
C   -0.6340982    1.4833402    1.9987548
C   -0.4762271    2.2641383    0.8130905
O   -1.4143906    2.0957737   -0.1488991
C    0.5303833    3.1975496    0.4793701
C    1.5660528    3.6030702    1.3756612
C    2.5083303    4.5202638    1.0109003
C    2.5221586    5.1283848   -0.2914451
C    1.4741670    4.7118319   -1.1881023
C    0.5324470    3.8008081   -0.8178058
O   -5.2713339    0.2965741   -2.1251228
H   -5.5044129   -1.1065337    0.1213572
O   -3.9279196   -1.1140655    2.2747027
H   -3.1695133    1.8093719   -2.0265000
H   -1.7835657    0.0400732    3.0295477
O    0.3020075    1.6155448    2.9799409
H    1.6046182    3.1874335    2.3680928
H    3.2786957    4.8148221    1.7138988
O    3.4010928    5.9787469   -0.6341305
H    1.4542998    5.1468439   -2.1803654
H   -0.2303994    3.5203438   -1.5296904
H   -5.9910621   -0.3291277   -1.9581886
H   -4.7179538   -1.6691741    2.2043969
H    0.0771305    1.0363979    3.7229004
$end

$rem
BASIS  =  def2-ma-TZVP
MEM_STATIC  =  2000
MEM_TOTAL  =  64000
METHOD  =  CAM-B3LYP
SOLVENT_METHOD = pcm
SYMMETRY_IGNORE  =  1
CIS_N_ROOTS = 7
CIS_SINGLETS = true
CIS_TRIPLETS = true
CISTR_PRINT = true
RPA = true
PRINT_ORBITALS = true
SCF_PRINT = 1
SCF_FINAL_PRINT = 2
PRINT_GENERAL_BASIS = true
CISTR_PRINT = true
PRINT_RADII_GYRE = true
MULTIPOLE_ORDER = 5
CIS_AMPL_PRINT = 5
CIS_AMPL_ANAL = true
STATE_ANALYSIS = true
$end

$pcm
Theory   CPCM
Method   SWIG
Solver   Inversion
Radii    Bondi
$end

$solvent
Dielectric         78.39
OpticalDielectric  1.777849
$end


--------------------------------------------------------------
 ----------------------------------------------------------------
             Standard Nuclear Orientation (Angstroms)
    I     Atom           X                Y                Z
 ----------------------------------------------------------------
    1      C      -4.4242662000     0.3428700000    -1.0586814000
    2      C      -4.6462430000    -0.4460260000     0.0789714000
    3      C      -3.7696416000    -0.3766015000     1.1426319000
    4      C      -2.6482979000     0.4847680000     1.0944877000
    5      C      -2.4771150000     1.2515241000    -0.0662691000
    6      C      -3.3372578000     1.2022446000    -1.1486865000
    7      C      -1.6908052000     0.6247489000     2.1229615000
    8      C      -0.6340982000     1.4833402000     1.9987548000
    9      C      -0.4762271000     2.2641383000     0.8130905000
   10      O      -1.4143906000     2.0957737000    -0.1488991000
   11      C       0.5303833000     3.1975496000     0.4793701000
   12      C       1.5660528000     3.6030702000     1.3756612000
   13      C       2.5083303000     4.5202638000     1.0109003000
   14      C       2.5221586000     5.1283848000    -0.2914451000
   15      C       1.4741670000     4.7118319000    -1.1881023000
   16      C       0.5324470000     3.8008081000    -0.8178058000
   17      O      -5.2713339000     0.2965741000    -2.1251228000
   18      H      -5.5044129000    -1.1065337000     0.1213572000
   19      O      -3.9279196000    -1.1140655000     2.2747027000
   20      H      -3.1695133000     1.8093719000    -2.0265000000
   21      H      -1.7835657000     0.0400732000     3.0295477000
   22      O       0.3020075000     1.6155448000     2.9799409000
   23      H       1.6046182000     3.1874335000     2.3680928000
   24      H       3.2786957000     4.8148221000     1.7138988000
   25      O       3.4010928000     5.9787469000    -0.6341305000
   26      H       1.4542998000     5.1468439000    -2.1803654000
   27      H      -0.2303994000     3.5203438000    -1.5296904000
   28      H      -5.9910621000    -0.3291277000    -1.9581886000
   29      H      -4.7179538000    -1.6691741000     2.2043969000
   30      H       0.0771305000     1.0363979000     3.7229004000
 ----------------------------------------------------------------
 Nuclear Repulsion Energy =        1430.98178948 hartrees
 There are       70 alpha and       70 beta electrons
 Requested basis set is def2-ma-TZVP
 Basis set in general basis input format:
-----------------------------------------------------------------------
$basis
C    0
S    6    1.000000
   1.35753497E+04    2.22458144E-04 
   2.03523337E+03    1.72327383E-03 
   4.63225624E+02    8.92557153E-03 
   1.31200196E+02    3.57279845E-02 
   4.28530159E+01    1.10762599E-01 
   1.55841858E+01    2.42956276E-01 
S    2    1.000000
   6.20671385E+00    4.14402634E-01 
   2.57648965E+00    2.37449687E-01 
S    1    1.000000
   5.76963394E-01    1.00000000E+00 
S    1    1.000000
   2.29728314E-01    1.00000000E+00 
S    1    1.000000
   9.51644400E-02    1.00000000E+00 
S    1    1.000000
   4.84754014E-02    1.00000000E+00 
P    4    1.000000
   3.46972322E+01    5.33336578E-03 
   7.95826228E+00    3.58641091E-02 
   2.37808269E+00    1.42158733E-01 
   8.14332082E-01    3.42704718E-01 
P    1    1.000000
   2.88875473E-01    4.64458224E-01 
P    1    1.000000
   1.00568237E-01    2.49557899E-01 
D    1    1.000000
   1.09700000E+00    1.00000000E+00 
D    1    1.000000
   3.18000000E-01    1.00000000E+00 
F    1    1.000000
   7.61000000E-01    1.00000000E+00 
****
C    0
S    6    1.000000
   1.35753497E+04    2.22458144E-04 
   2.03523337E+03    1.72327383E-03 
   4.63225624E+02    8.92557153E-03 
   1.31200196E+02    3.57279845E-02 
   4.28530159E+01    1.10762599E-01 
   1.55841858E+01    2.42956276E-01 
S    2    1.000000
   6.20671385E+00    4.14402634E-01 
   2.57648965E+00    2.37449687E-01 
S    1    1.000000
   5.76963394E-01    1.00000000E+00 
S    1    1.000000
   2.29728314E-01    1.00000000E+00 
S    1    1.000000
   9.51644400E-02    1.00000000E+00 
S    1    1.000000
   4.84754014E-02    1.00000000E+00 
P    4    1.000000
   3.46972322E+01    5.33336578E-03 
   7.95826228E+00    3.58641091E-02 
   2.37808269E+00    1.42158733E-01 
   8.14332082E-01    3.42704718E-01 
P    1    1.000000
   2.88875473E-01    4.64458224E-01 
P    1    1.000000
   1.00568237E-01    2.49557899E-01 
D    1    1.000000
   1.09700000E+00    1.00000000E+00 
D    1    1.000000
   3.18000000E-01    1.00000000E+00 
F    1    1.000000
   7.61000000E-01    1.00000000E+00 
****
C    0
S    6    1.000000
   1.35753497E+04    2.22458144E-04 
   2.03523337E+03    1.72327383E-03 
   4.63225624E+02    8.92557153E-03 
   1.31200196E+02    3.57279845E-02 
   4.28530159E+01    1.10762599E-01 
   1.55841858E+01    2.42956276E-01 
S    2    1.000000
   6.20671385E+00    4.14402634E-01 
   2.57648965E+00    2.37449687E-01 
S    1    1.000000
   5.76963394E-01    1.00000000E+00 
S    1    1.000000
   2.29728314E-01    1.00000000E+00 
S    1    1.000000
   9.51644400E-02    1.00000000E+00 
S    1    1.000000
   4.84754014E-02    1.00000000E+00 
P    4    1.000000
   3.46972322E+01    5.33336578E-03 
   7.95826228E+00    3.58641091E-02 
   2.37808269E+00    1.42158733E-01 
   8.14332082E-01    3.42704718E-01 
P    1    1.000000
   2.88875473E-01    4.64458224E-01 
P    1    1.000000
   1.00568237E-01    2.49557899E-01 
D    1    1.000000
   1.09700000E+00    1.00000000E+00 
D    1    1.000000
   3.18000000E-01    1.00000000E+00 
F    1    1.000000
   7.61000000E-01    1.00000000E+00 
****
C    0
S    6    1.000000
   1.35753497E+04    2.22458144E-04 
   2.03523337E+03    1.72327383E-03 
   4.63225624E+02    8.92557153E-03 
   1.31200196E+02    3.57279845E-02 
   4.28530159E+01    1.10762599E-01 
   1.55841858E+01    2.42956276E-01 
S    2    1.000000
   6.20671385E+00    4.14402634E-01 
   2.57648965E+00    2.37449687E-01 
S    1    1.000000
   5.76963394E-01    1.00000000E+00 
S    1    1.000000
   2.29728314E-01    1.00000000E+00 
S    1    1.000000
   9.51644400E-02    1.00000000E+00 
S    1    1.000000
   4.84754014E-02    1.00000000E+00 
P    4    1.000000
   3.46972322E+01    5.33336578E-03 
   7.95826228E+00    3.58641091E-02 
   2.37808269E+00    1.42158733E-01 
   8.14332082E-01    3.42704718E-01 
P    1    1.000000
   2.88875473E-01    4.64458224E-01 
P    1    1.000000
   1.00568237E-01    2.49557899E-01 
D    1    1.000000
   1.09700000E+00    1.00000000E+00 
D    1    1.000000
   3.18000000E-01    1.00000000E+00 
F    1    1.000000
   7.61000000E-01    1.00000000E+00 
****
C    0
S    6    1.000000
   1.35753497E+04    2.22458144E-04 
   2.03523337E+03    1.72327383E-03 
   4.63225624E+02    8.92557153E-03 
   1.31200196E+02    3.57279845E-02 
   4.28530159E+01    1.10762599E-01 
   1.55841858E+01    2.42956276E-01 
S    2    1.000000
   6.20671385E+00    4.14402634E-01 
   2.57648965E+00    2.37449687E-01 
S    1    1.000000
   5.76963394E-01    1.00000000E+00 
S    1    1.000000
   2.29728314E-01    1.00000000E+00 
S    1    1.000000
   9.51644400E-02    1.00000000E+00 
S    1    1.000000
   4.84754014E-02    1.00000000E+00 
P    4    1.000000
   3.46972322E+01    5.33336578E-03 
   7.95826228E+00    3.58641091E-02 
   2.37808269E+00    1.42158733E-01 
   8.14332082E-01    3.42704718E-01 
P    1    1.000000
   2.88875473E-01    4.64458224E-01 
P    1    1.000000
   1.00568237E-01    2.49557899E-01 
D    1    1.000000
   1.09700000E+00    1.00000000E+00 
D    1    1.000000
   3.18000000E-01    1.00000000E+00 
F    1    1.000000
   7.61000000E-01    1.00000000E+00 
****
C    0
S    6    1.000000
   1.35753497E+04    2.22458144E-04 
   2.03523337E+03    1.72327383E-03 
   4.63225624E+02    8.92557153E-03 
   1.31200196E+02    3.57279845E-02 
   4.28530159E+01    1.10762599E-01 
   1.55841858E+01    2.42956276E-01 
S    2    1.000000
   6.20671385E+00    4.14402634E-01 
   2.57648965E+00    2.37449687E-01 
S    1    1.000000
   5.76963394E-01    1.00000000E+00 
S    1    1.000000
   2.29728314E-01    1.00000000E+00 
S    1    1.000000
   9.51644400E-02    1.00000000E+00 
S    1    1.000000
   4.84754014E-02    1.00000000E+00 
P    4    1.000000
   3.46972322E+01    5.33336578E-03 
   7.95826228E+00    3.58641091E-02 
   2.37808269E+00    1.42158733E-01 
   8.14332082E-01    3.42704718E-01 
P    1    1.000000
   2.88875473E-01    4.64458224E-01 
P    1    1.000000
   1.00568237E-01    2.49557899E-01 
D    1    1.000000
   1.09700000E+00    1.00000000E+00 
D    1    1.000000
   3.18000000E-01    1.00000000E+00 
F    1    1.000000
   7.61000000E-01    1.00000000E+00 
****
C    0
S    6    1.000000
   1.35753497E+04    2.22458144E-04 
   2.03523337E+03    1.72327383E-03 
   4.63225624E+02    8.92557153E-03 
   1.31200196E+02    3.57279845E-02 
   4.28530159E+01    1.10762599E-01 
   1.55841858E+01    2.42956276E-01 
S    2    1.000000
   6.20671385E+00    4.14402634E-01 
   2.57648965E+00    2.37449687E-01 
S    1    1.000000
   5.76963394E-01    1.00000000E+00 
S    1    1.000000
   2.29728314E-01    1.00000000E+00 
S    1    1.000000
   9.51644400E-02    1.00000000E+00 
S    1    1.000000
   4.84754014E-02    1.00000000E+00 
P    4    1.000000
   3.46972322E+01    5.33336578E-03 
   7.95826228E+00    3.58641091E-02 
   2.37808269E+00    1.42158733E-01 
   8.14332082E-01    3.42704718E-01 
P    1    1.000000
   2.88875473E-01    4.64458224E-01 
P    1    1.000000
   1.00568237E-01    2.49557899E-01 
D    1    1.000000
   1.09700000E+00    1.00000000E+00 
D    1    1.000000
   3.18000000E-01    1.00000000E+00 
F    1    1.000000
   7.61000000E-01    1.00000000E+00 
****
C    0
S    6    1.000000
   1.35753497E+04    2.22458144E-04 
   2.03523337E+03    1.72327383E-03 
   4.63225624E+02    8.92557153E-03 
   1.31200196E+02    3.57279845E-02 
   4.28530159E+01    1.10762599E-01 
   1.55841858E+01    2.42956276E-01 
S    2    1.000000
   6.20671385E+00    4.14402634E-01 
   2.57648965E+00    2.37449687E-01 
S    1    1.000000
   5.76963394E-01    1.00000000E+00 
S    1    1.000000
   2.29728314E-01    1.00000000E+00 
S    1    1.000000
   9.51644400E-02    1.00000000E+00 
S    1    1.000000
   4.84754014E-02    1.00000000E+00 
P    4    1.000000
   3.46972322E+01    5.33336578E-03 
   7.95826228E+00    3.58641091E-02 
   2.37808269E+00    1.42158733E-01 
   8.14332082E-01    3.42704718E-01 
P    1    1.000000
   2.88875473E-01    4.64458224E-01 
P    1    1.000000
   1.00568237E-01    2.49557899E-01 
D    1    1.000000
   1.09700000E+00    1.00000000E+00 
D    1    1.000000
   3.18000000E-01    1.00000000E+00 
F    1    1.000000
   7.61000000E-01    1.00000000E+00 
****
C    0
S    6    1.000000
   1.35753497E+04    2.22458144E-04 
   2.03523337E+03    1.72327383E-03 
   4.63225624E+02    8.92557153E-03 
   1.31200196E+02    3.57279845E-02 
   4.28530159E+01    1.10762599E-01 
   1.55841858E+01    2.42956276E-01 
S    2    1.000000
   6.20671385E+00    4.14402634E-01 
   2.57648965E+00    2.37449687E-01 
S    1    1.000000
   5.76963394E-01    1.00000000E+00 
S    1    1.000000
   2.29728314E-01    1.00000000E+00 
S    1    1.000000
   9.51644400E-02    1.00000000E+00 
S    1    1.000000
   4.84754014E-02    1.00000000E+00 
P    4    1.000000
   3.46972322E+01    5.33336578E-03 
   7.95826228E+00    3.58641091E-02 
   2.37808269E+00    1.42158733E-01 
   8.14332082E-01    3.42704718E-01 
P    1    1.000000
   2.88875473E-01    4.64458224E-01 
P    1    1.000000
   1.00568237E-01    2.49557899E-01 
D    1    1.000000
   1.09700000E+00    1.00000000E+00 
D    1    1.000000
   3.18000000E-01    1.00000000E+00 
F    1    1.000000
   7.61000000E-01    1.00000000E+00 
****
O    0
S    6    1.000000
   2.70323826E+04    2.17263025E-04 
   4.05238714E+03    1.68386622E-03 
   9.22327227E+02    8.73956163E-03 
   2.61240710E+02    3.52399688E-02 
   8.53546414E+01    1.11535191E-01 
   3.10350352E+01    2.55889540E-01 
S    2    1.000000
   1.22608607E+01    3.97687309E-01 
   4.99870760E+00    2.46278494E-01 
S    1    1.000000
   1.17031082E+00    1.00000000E+00 
S    1    1.000000
   4.64747410E-01    1.00000000E+00 
S    1    1.000000
   1.85045364E-01    1.00000000E+00 
S    1    1.000000
   7.02880263E-02    1.00000000E+00 
P    4    1.000000
   6.32749548E+01    6.06851034E-03 
   1.46270494E+01    4.19125758E-02 
   4.45012235E+00    1.61538411E-01 
   1.52757996E+00    3.57069513E-01 
P    1    1.000000
   5.29351179E-01    4.47942075E-01 
P    1    1.000000
   1.74784213E-01    2.44460697E-01 
P    1    1.000000
   5.11127457E-02    1.00000000E+00 
D    1    1.000000
   2.31400000E+00    1.00000000E+00 
D    1    1.000000
   6.45000000E-01    1.00000000E+00 
F    1    1.000000
   1.42800000E+00    1.00000000E+00 
****
C    0
S    6    1.000000
   1.35753497E+04    2.22458144E-04 
   2.03523337E+03    1.72327383E-03 
   4.63225624E+02    8.92557153E-03 
   1.31200196E+02    3.57279845E-02 
   4.28530159E+01    1.10762599E-01 
   1.55841858E+01    2.42956276E-01 
S    2    1.000000
   6.20671385E+00    4.14402634E-01 
   2.57648965E+00    2.37449687E-01 
S    1    1.000000
   5.76963394E-01    1.00000000E+00 
S    1    1.000000
   2.29728314E-01    1.00000000E+00 
S    1    1.000000
   9.51644400E-02    1.00000000E+00 
S    1    1.000000
   4.84754014E-02    1.00000000E+00 
P    4    1.000000
   3.46972322E+01    5.33336578E-03 
   7.95826228E+00    3.58641091E-02 
   2.37808269E+00    1.42158733E-01 
   8.14332082E-01    3.42704718E-01 
P    1    1.000000
   2.88875473E-01    4.64458224E-01 
P    1    1.000000
   1.00568237E-01    2.49557899E-01 
D    1    1.000000
   1.09700000E+00    1.00000000E+00 
D    1    1.000000
   3.18000000E-01    1.00000000E+00 
F    1    1.000000
   7.61000000E-01    1.00000000E+00 
****
C    0
S    6    1.000000
   1.35753497E+04    2.22458144E-04 
   2.03523337E+03    1.72327383E-03 
   4.63225624E+02    8.92557153E-03 
   1.31200196E+02    3.57279845E-02 
   4.28530159E+01    1.10762599E-01 
   1.55841858E+01    2.42956276E-01 
S    2    1.000000
   6.20671385E+00    4.14402634E-01 
   2.57648965E+00    2.37449687E-01 
S    1    1.000000
   5.76963394E-01    1.00000000E+00 
S    1    1.000000
   2.29728314E-01    1.00000000E+00 
S    1    1.000000
   9.51644400E-02    1.00000000E+00 
S    1    1.000000
   4.84754014E-02    1.00000000E+00 
P    4    1.000000
   3.46972322E+01    5.33336578E-03 
   7.95826228E+00    3.58641091E-02 
   2.37808269E+00    1.42158733E-01 
   8.14332082E-01    3.42704718E-01 
P    1    1.000000
   2.88875473E-01    4.64458224E-01 
P    1    1.000000
   1.00568237E-01    2.49557899E-01 
D    1    1.000000
   1.09700000E+00    1.00000000E+00 
D    1    1.000000
   3.18000000E-01    1.00000000E+00 
F    1    1.000000
   7.61000000E-01    1.00000000E+00 
****
C    0
S    6    1.000000
   1.35753497E+04    2.22458144E-04 
   2.03523337E+03    1.72327383E-03 
   4.63225624E+02    8.92557153E-03 
   1.31200196E+02    3.57279845E-02 
   4.28530159E+01    1.10762599E-01 
   1.55841858E+01    2.42956276E-01 
S    2    1.000000
   6.20671385E+00    4.14402634E-01 
   2.57648965E+00    2.37449687E-01 
S    1    1.000000
   5.76963394E-01    1.00000000E+00 
S    1    1.000000
   2.29728314E-01    1.00000000E+00 
S    1    1.000000
   9.51644400E-02    1.00000000E+00 
S    1    1.000000
   4.84754014E-02    1.00000000E+00 
P    4    1.000000
   3.46972322E+01    5.33336578E-03 
   7.95826228E+00    3.58641091E-02 
   2.37808269E+00    1.42158733E-01 
   8.14332082E-01    3.42704718E-01 
P    1    1.000000
   2.88875473E-01    4.64458224E-01 
P    1    1.000000
   1.00568237E-01    2.49557899E-01 
D    1    1.000000
   1.09700000E+00    1.00000000E+00 
D    1    1.000000
   3.18000000E-01    1.00000000E+00 
F    1    1.000000
   7.61000000E-01    1.00000000E+00 
****
C    0
S    6    1.000000
   1.35753497E+04    2.22458144E-04 
   2.03523337E+03    1.72327383E-03 
   4.63225624E+02    8.92557153E-03 
   1.31200196E+02    3.57279845E-02 
   4.28530159E+01    1.10762599E-01 
   1.55841858E+01    2.42956276E-01 
S    2    1.000000
   6.20671385E+00    4.14402634E-01 
   2.57648965E+00    2.37449687E-01 
S    1    1.000000
   5.76963394E-01    1.00000000E+00 
S    1    1.000000
   2.29728314E-01    1.00000000E+00 
S    1    1.000000
   9.51644400E-02    1.00000000E+00 
S    1    1.000000
   4.84754014E-02    1.00000000E+00 
P    4    1.000000
   3.46972322E+01    5.33336578E-03 
   7.95826228E+00    3.58641091E-02 
   2.37808269E+00    1.42158733E-01 
   8.14332082E-01    3.42704718E-01 
P    1    1.000000
   2.88875473E-01    4.64458224E-01 
P    1    1.000000
   1.00568237E-01    2.49557899E-01 
D    1    1.000000
   1.09700000E+00    1.00000000E+00 
D    1    1.000000
   3.18000000E-01    1.00000000E+00 
F    1    1.000000
   7.61000000E-01    1.00000000E+00 
****
C    0
S    6    1.000000
   1.35753497E+04    2.22458144E-04 
   2.03523337E+03    1.72327383E-03 
   4.63225624E+02    8.92557153E-03 
   1.31200196E+02    3.57279845E-02 
   4.28530159E+01    1.10762599E-01 
   1.55841858E+01    2.42956276E-01 
S    2    1.000000
   6.20671385E+00    4.14402634E-01 
   2.57648965E+00    2.37449687E-01 
S    1    1.000000
   5.76963394E-01    1.00000000E+00 
S    1    1.000000
   2.29728314E-01    1.00000000E+00 
S    1    1.000000
   9.51644400E-02    1.00000000E+00 
S    1    1.000000
   4.84754014E-02    1.00000000E+00 
P    4    1.000000
   3.46972322E+01    5.33336578E-03 
   7.95826228E+00    3.58641091E-02 
   2.37808269E+00    1.42158733E-01 
   8.14332082E-01    3.42704718E-01 
P    1    1.000000
   2.88875473E-01    4.64458224E-01 
P    1    1.000000
   1.00568237E-01    2.49557899E-01 
D    1    1.000000
   1.09700000E+00    1.00000000E+00 
D    1    1.000000
   3.18000000E-01    1.00000000E+00 
F    1    1.000000
   7.61000000E-01    1.00000000E+00 
****
C    0
S    6    1.000000
   1.35753497E+04    2.22458144E-04 
   2.03523337E+03    1.72327383E-03 
   4.63225624E+02    8.92557153E-03 
   1.31200196E+02    3.57279845E-02 
   4.28530159E+01    1.10762599E-01 
   1.55841858E+01    2.42956276E-01 
S    2    1.000000
   6.20671385E+00    4.14402634E-01 
   2.57648965E+00    2.37449687E-01 
S    1    1.000000
   5.76963394E-01    1.00000000E+00 
S    1    1.000000
   2.29728314E-01    1.00000000E+00 
S    1    1.000000
   9.51644400E-02    1.00000000E+00 
S    1    1.000000
   4.84754014E-02    1.00000000E+00 
P    4    1.000000
   3.46972322E+01    5.33336578E-03 
   7.95826228E+00    3.58641091E-02 
   2.37808269E+00    1.42158733E-01 
   8.14332082E-01    3.42704718E-01 
P    1    1.000000
   2.88875473E-01    4.64458224E-01 
P    1    1.000000
   1.00568237E-01    2.49557899E-01 
D    1    1.000000
   1.09700000E+00    1.00000000E+00 
D    1    1.000000
   3.18000000E-01    1.00000000E+00 
F    1    1.000000
   7.61000000E-01    1.00000000E+00 
****
O    0
S    6    1.000000
   2.70323826E+04    2.17263025E-04 
   4.05238714E+03    1.68386622E-03 
   9.22327227E+02    8.73956163E-03 
   2.61240710E+02    3.52399688E-02 
   8.53546414E+01    1.11535191E-01 
   3.10350352E+01    2.55889540E-01 
S    2    1.000000
   1.22608607E+01    3.97687309E-01 
   4.99870760E+00    2.46278494E-01 
S    1    1.000000
   1.17031082E+00    1.00000000E+00 
S    1    1.000000
   4.64747410E-01    1.00000000E+00 
S    1    1.000000
   1.85045364E-01    1.00000000E+00 
S    1    1.000000
   7.02880263E-02    1.00000000E+00 
P    4    1.000000
   6.32749548E+01    6.06851034E-03 
   1.46270494E+01    4.19125758E-02 
   4.45012235E+00    1.61538411E-01 
   1.52757996E+00    3.57069513E-01 
P    1    1.000000
   5.29351179E-01    4.47942075E-01 
P    1    1.000000
   1.74784213E-01    2.44460697E-01 
P    1    1.000000
   5.11127457E-02    1.00000000E+00 
D    1    1.000000
   2.31400000E+00    1.00000000E+00 
D    1    1.000000
   6.45000000E-01    1.00000000E+00 
F    1    1.000000
   1.42800000E+00    1.00000000E+00 
****
H    0
S    3    1.000000
   3.40613410E+01    6.02519780E-03 
   5.12357460E+00    4.50210940E-02 
   1.16466260E+00    2.01897260E-01 
S    1    1.000000
   3.27230410E-01    1.00000000E+00 
S    1    1.000000
   1.03072410E-01    1.00000000E+00 
P    1    1.000000
   8.00000000E-01    1.00000000E+00 
****
O    0
S    6    1.000000
   2.70323826E+04    2.17263025E-04 
   4.05238714E+03    1.68386622E-03 
   9.22327227E+02    8.73956163E-03 
   2.61240710E+02    3.52399688E-02 
   8.53546414E+01    1.11535191E-01 
   3.10350352E+01    2.55889540E-01 
S    2    1.000000
   1.22608607E+01    3.97687309E-01 
   4.99870760E+00    2.46278494E-01 
S    1    1.000000
   1.17031082E+00    1.00000000E+00 
S    1    1.000000
   4.64747410E-01    1.00000000E+00 
S    1    1.000000
   1.85045364E-01    1.00000000E+00 
S    1    1.000000
   7.02880263E-02    1.00000000E+00 
P    4    1.000000
   6.32749548E+01    6.06851034E-03 
   1.46270494E+01    4.19125758E-02 
   4.45012235E+00    1.61538411E-01 
   1.52757996E+00    3.57069513E-01 
P    1    1.000000
   5.29351179E-01    4.47942075E-01 
P    1    1.000000
   1.74784213E-01    2.44460697E-01 
P    1    1.000000
   5.11127457E-02    1.00000000E+00 
D    1    1.000000
   2.31400000E+00    1.00000000E+00 
D    1    1.000000
   6.45000000E-01    1.00000000E+00 
F    1    1.000000
   1.42800000E+00    1.00000000E+00 
****
H    0
S    3    1.000000
   3.40613410E+01    6.02519780E-03 
   5.12357460E+00    4.50210940E-02 
   1.16466260E+00    2.01897260E-01 
S    1    1.000000
   3.27230410E-01    1.00000000E+00 
S    1    1.000000
   1.03072410E-01    1.00000000E+00 
P    1    1.000000
   8.00000000E-01    1.00000000E+00 
****
H    0
S    3    1.000000
   3.40613410E+01    6.02519780E-03 
   5.12357460E+00    4.50210940E-02 
   1.16466260E+00    2.01897260E-01 
S    1    1.000000
   3.27230410E-01    1.00000000E+00 
S    1    1.000000
   1.03072410E-01    1.00000000E+00 
P    1    1.000000
   8.00000000E-01    1.00000000E+00 
****
O    0
S    6    1.000000
   2.70323826E+04    2.17263025E-04 
   4.05238714E+03    1.68386622E-03 
   9.22327227E+02    8.73956163E-03 
   2.61240710E+02    3.52399688E-02 
   8.53546414E+01    1.11535191E-01 
   3.10350352E+01    2.55889540E-01 
S    2    1.000000
   1.22608607E+01    3.97687309E-01 
   4.99870760E+00    2.46278494E-01 
S    1    1.000000
   1.17031082E+00    1.00000000E+00 
S    1    1.000000
   4.64747410E-01    1.00000000E+00 
S    1    1.000000
   1.85045364E-01    1.00000000E+00 
S    1    1.000000
   7.02880263E-02    1.00000000E+00 
P    4    1.000000
   6.32749548E+01    6.06851034E-03 
   1.46270494E+01    4.19125758E-02 
   4.45012235E+00    1.61538411E-01 
   1.52757996E+00    3.57069513E-01 
P    1    1.000000
   5.29351179E-01    4.47942075E-01 
P    1    1.000000
   1.74784213E-01    2.44460697E-01 
P    1    1.000000
   5.11127457E-02    1.00000000E+00 
D    1    1.000000
   2.31400000E+00    1.00000000E+00 
D    1    1.000000
   6.45000000E-01    1.00000000E+00 
F    1    1.000000
   1.42800000E+00    1.00000000E+00 
****
H    0
S    3    1.000000
   3.40613410E+01    6.02519780E-03 
   5.12357460E+00    4.50210940E-02 
   1.16466260E+00    2.01897260E-01 
S    1    1.000000
   3.27230410E-01    1.00000000E+00 
S    1    1.000000
   1.03072410E-01    1.00000000E+00 
P    1    1.000000
   8.00000000E-01    1.00000000E+00 
****
H    0
S    3    1.000000
   3.40613410E+01    6.02519780E-03 
   5.12357460E+00    4.50210940E-02 
   1.16466260E+00    2.01897260E-01 
S    1    1.000000
   3.27230410E-01    1.00000000E+00 
S    1    1.000000
   1.03072410E-01    1.00000000E+00 
P    1    1.000000
   8.00000000E-01    1.00000000E+00 
****
O    0
S    6    1.000000
   2.70323826E+04    2.17263025E-04 
   4.05238714E+03    1.68386622E-03 
   9.22327227E+02    8.73956163E-03 
   2.61240710E+02    3.52399688E-02 
   8.53546414E+01    1.11535191E-01 
   3.10350352E+01    2.55889540E-01 
S    2    1.000000
   1.22608607E+01    3.97687309E-01 
   4.99870760E+00    2.46278494E-01 
S    1    1.000000
   1.17031082E+00    1.00000000E+00 
S    1    1.000000
   4.64747410E-01    1.00000000E+00 
S    1    1.000000
   1.85045364E-01    1.00000000E+00 
S    1    1.000000
   7.02880263E-02    1.00000000E+00 
P    4    1.000000
   6.32749548E+01    6.06851034E-03 
   1.46270494E+01    4.19125758E-02 
   4.45012235E+00    1.61538411E-01 
   1.52757996E+00    3.57069513E-01 
P    1    1.000000
   5.29351179E-01    4.47942075E-01 
P    1    1.000000
   1.74784213E-01    2.44460697E-01 
P    1    1.000000
   5.11127457E-02    1.00000000E+00 
D    1    1.000000
   2.31400000E+00    1.00000000E+00 
D    1    1.000000
   6.45000000E-01    1.00000000E+00 
F    1    1.000000
   1.42800000E+00    1.00000000E+00 
****
H    0
S    3    1.000000
   3.40613410E+01    6.02519780E-03 
   5.12357460E+00    4.50210940E-02 
   1.16466260E+00    2.01897260E-01 
S    1    1.000000
   3.27230410E-01    1.00000000E+00 
S    1    1.000000
   1.03072410E-01    1.00000000E+00 
P    1    1.000000
   8.00000000E-01    1.00000000E+00 
****
H    0
S    3    1.000000
   3.40613410E+01    6.02519780E-03 
   5.12357460E+00    4.50210940E-02 
   1.16466260E+00    2.01897260E-01 
S    1    1.000000
   3.27230410E-01    1.00000000E+00 
S    1    1.000000
   1.03072410E-01    1.00000000E+00 
P    1    1.000000
   8.00000000E-01    1.00000000E+00 
****
H    0
S    3    1.000000
   3.40613410E+01    6.02519780E-03 
   5.12357460E+00    4.50210940E-02 
   1.16466260E+00    2.01897260E-01 
S    1    1.000000
   3.27230410E-01    1.00000000E+00 
S    1    1.000000
   1.03072410E-01    1.00000000E+00 
P    1    1.000000
   8.00000000E-01    1.00000000E+00 
****
H    0
S    3    1.000000
   3.40613410E+01    6.02519780E-03 
   5.12357460E+00    4.50210940E-02 
   1.16466260E+00    2.01897260E-01 
S    1    1.000000
   3.27230410E-01    1.00000000E+00 
S    1    1.000000
   1.03072410E-01    1.00000000E+00 
P    1    1.000000
   8.00000000E-01    1.00000000E+00 
****
H    0
S    3    1.000000
   3.40613410E+01    6.02519780E-03 
   5.12357460E+00    4.50210940E-02 
   1.16466260E+00    2.01897260E-01 
S    1    1.000000
   3.27230410E-01    1.00000000E+00 
S    1    1.000000
   1.03072410E-01    1.00000000E+00 
P    1    1.000000
   8.00000000E-01    1.00000000E+00 
****
$end
-----------------------------------------------------------------------
 There are 285 shells and 715 basis functions

 Total QAlloc Memory Limit  64000 MB
 Mega-Array Size      1956 MB
 MEM_STATIC part      2000 MB

 User-specified dielectric constants (eps_0 = 78.39, eps_inf = 1.78)
 Using C-PCM dielectric factor f(eps) = (eps-1)/eps = 0.987243
 Static dielectric constant eps = 78.39
 Discretize the solute cavity surface with Lebedev spheres
	Using 110 Lebedev grid points for each H atom
	Using 194 Lebedev grid points for other atoms
	Atomic van der Waals radii (Bondi set) will be scaled by 1.20
 Using smooth SwiG surface discretization
 Remove points where switching function is < 1.0e-08
 Keep 2038 surface tesserae and discard 2942 interior tesserae
 Molecular Surface Area = 286.848 Angst**2

 A cutoff of  1.0D-12 yielded  29923 shell pairs
 There are    178477 function pairs (    227264 Cartesian)
 Smallest overlap matrix eigenvalue = 3.86E-06

 Scale SEOQF with 1.000000e-02/1.000000e-02/1.000000e-01

 Standard Electronic Orientation quadrupole field applied
 Nucleus-field energy     =    -0.0000000219 hartrees
 Guess from superposition of atomic densities
 Warning:  Energy on first SCF cycle will be non-variational
 SAD guess density has 140.000000 electrons

 -----------------------------------------------------------------------
  General SCF calculation program by
  Eric Jon Sundstrom, Paul Horn, Yuezhi Mao, Dmitri Zuev, Alec White,
  David Stuck, Shaama M.S., Shane Yost, Joonho Lee, David Small,
  Daniel Levine, Susi Lehtola, Hugh Burton, Evgeny Epifanovsky,
  Bang C. Huynh
 -----------------------------------------------------------------------
 Exchange:     0.1900 Hartree-Fock + 0.3500 B88 + 0.4600 muB88 + LR-HF
 Correlation:  0.1900 VWN5 + 0.8100 LYP
 Using SG-1 standard quadrature grid
 using 16 threads for integral computing
 -------------------------------------------------------
 OpenMP Integral computing Module                
 Release: version 1.0, May 2013, Q-Chem Inc. Pittsburgh 
 -------------------------------------------------------
 C-PCM solvent model [f = (eps-1)/eps], solve by matrix inversion
 DFT Correlation          Energy =  -5.68487570240769
 DFT Exchange             Energy = -86.74750775989536
 HF Exchange              Energy = -35.79726754533254
 One-Electron             Energy = -4128.59954892967198
 SCRF wf-dependent energy Energy =   0.00000000000000
 Total Coulomb            Energy = 1866.13533443866322
 Nuclear repulsion Energy = 1430.98178945634322
 A restricted SCF calculation will be
 performed using DIIS
 SCF converges when DIIS error is below 1.0e-08
 DFT Correlation          Energy =  -5.68487570240769
 DFT Exchange             Energy = -86.74750775989536
 HF Exchange              Energy = -35.79726754533254
 One-Electron             Energy = -4128.59954892967198
 SCRF wf-dependent energy Energy =   0.00000000000000
 Total Coulomb            Energy = 1866.13533443866322
 ---------------------------------------
  Cycle       Energy         DIIS error
 ---------------------------------------
 DFT Correlation          Energy =  -5.76495063609198
 DFT Exchange             Energy = -88.63017194567325
 HF Exchange              Energy = -34.48446140770528
 One-Electron             Energy = -4145.45301311861749
 SCRF wf-dependent energy Energy =  -1.87795909120541
 Total Coulomb            Energy = 1891.86050326502368
 Nuclear repulsion Energy = 1430.98178945634322
    1    -959.7120760423      2.17e-02  
 DFT Correlation          Energy =  -5.70817352872377
 DFT Exchange             Energy = -87.05398286573107
 HF Exchange              Energy = -34.03743856618315
 One-Electron             Energy = -4136.03524288200151
 SCRF wf-dependent energy Energy =   0.78182838333055
 Total Coulomb            Energy = 1877.87320669887322
 Nuclear repulsion Energy = 1430.98178945634322
    2    -953.3682634779      2.35e-03  
 DFT Correlation          Energy =  -5.73327569373722
 DFT Exchange             Energy = -87.80298108685224
 HF Exchange              Energy = -34.26920715158911
 One-Electron             Energy = -4136.77667577950615
 SCRF wf-dependent energy Energy =  -1.67630581996127
 Total Coulomb            Energy = 1881.62638482977923
 Nuclear repulsion Energy = 1430.98178945634322
    3    -953.1980133041      3.09e-03  
 DFT Correlation          Energy =  -5.73578799593139
 DFT Exchange             Energy = -87.84563537321210
 HF Exchange              Energy = -34.27968946629807
 One-Electron             Energy = -4139.22271159983393
 SCRF wf-dependent energy Energy =  -1.07630350834552
 Total Coulomb            Energy = 1883.51124641729643
 Nuclear repulsion Energy = 1430.98178945634322
    4    -953.6502712455      5.97e-04  
 DFT Correlation          Energy =  -5.73545325735140
 DFT Exchange             Energy = -87.83649444418650
 HF Exchange              Energy = -34.27818121412958
 One-Electron             Energy = -4139.20225006602504
 SCRF wf-dependent energy Energy =  -1.05958892872513
 Total Coulomb            Energy = 1883.46130632063364
 Nuclear repulsion Energy = 1430.98178945634322
    5    -953.6670920700      1.98e-04  
 DFT Correlation          Energy =  -5.73522121976956
 DFT Exchange             Energy = -87.83357244307412
 HF Exchange              Energy = -34.27825934261342
 One-Electron             Energy = -4139.00143048311111
 SCRF wf-dependent energy Energy =  -1.09719965516888
 Total Coulomb            Energy = 1883.29471863367894
 Nuclear repulsion Energy = 1430.98178945634322
    6    -953.6688721334      7.05e-05  
 DFT Correlation          Energy =  -5.73519036718844
 DFT Exchange             Energy = -87.83267708649828
 HF Exchange              Energy = -34.27833026413223
 One-Electron             Energy = -4139.01784517250326
 SCRF wf-dependent energy Energy =  -1.08542175003936
 Total Coulomb            Energy = 1883.29846305968795
 Nuclear repulsion Energy = 1430.98178945634322
    7    -953.6691750537      1.93e-05  
 DFT Correlation          Energy =  -5.73525119380840
 DFT Exchange             Energy = -87.83396899688717
 HF Exchange              Energy = -34.27882092587502
 One-Electron             Energy = -4139.05276835597306
 SCRF wf-dependent energy Energy =  -1.07942886095407
 Total Coulomb            Energy = 1883.32922456066444
 Nuclear repulsion Energy = 1430.98178945634322
    8    -953.6692121243      7.79e-06  
 DFT Correlation          Energy =  -5.73524789525737
 DFT Exchange             Energy = -87.83403086987352
 HF Exchange              Energy = -34.27893261446789
 One-Electron             Energy = -4139.06007165461779
 SCRF wf-dependent energy Energy =  -1.07511236998198
 Total Coulomb            Energy = 1883.33237749212685
 Nuclear repulsion Energy = 1430.98178945634322
    9    -953.6692243165      3.72e-06  
 DFT Correlation          Energy =  -5.73524381968161
 DFT Exchange             Energy = -87.83385842397706
 HF Exchange              Energy = -34.27890703031431
 One-Electron             Energy = -4139.05960247402982
 SCRF wf-dependent energy Energy =  -1.07423058124073
 Total Coulomb            Energy = 1883.33082363401422
 Nuclear repulsion Energy = 1430.98178945634322
   10    -953.6692284557      1.99e-06  
 DFT Correlation          Energy =  -5.73524921469392
 DFT Exchange             Energy = -87.83401231566151
 HF Exchange              Energy = -34.27895095212035
 One-Electron             Energy = -4139.06453948682247
 SCRF wf-dependent energy Energy =  -1.07288189396854
 Total Coulomb            Energy = 1883.33461494073140
 Nuclear repulsion Energy = 1430.98178945634322
   11    -953.6692292389      7.54e-07  
 DFT Correlation          Energy =  -5.73524934635125
 DFT Exchange             Energy = -87.83398954669482
 HF Exchange              Energy = -34.27894415636107
 One-Electron             Energy = -4139.06519108120483
 SCRF wf-dependent energy Energy =  -1.07253291110032
 Total Coulomb            Energy = 1883.33488809009327
 Nuclear repulsion Energy = 1430.98178945634322
   12    -953.6692294662      3.92e-07  
 DFT Correlation          Energy =  -5.73524946274852
 DFT Exchange             Energy = -87.83400218960514
 HF Exchange              Energy = -34.27894724618440
 One-Electron             Energy = -4139.06531322795854
 SCRF wf-dependent energy Energy =  -1.07245651504218
 Total Coulomb            Energy = 1883.33494968467403
 Nuclear repulsion Energy = 1430.98178945634322
   13    -953.6692294953      1.94e-07  
 DFT Correlation          Energy =  -5.73524949024821
 DFT Exchange             Energy = -87.83400080258284
 HF Exchange              Energy = -34.27894662193521
 One-Electron             Energy = -4139.06539271078327
 SCRF wf-dependent energy Energy =  -1.07242865705848
 Total Coulomb            Energy = 1883.33499932572772
 Nuclear repulsion Energy = 1430.98178945634322
   14    -953.6692295005      3.75e-08  
 DFT Correlation          Energy =  -5.73524950249215
 DFT Exchange             Energy = -87.83400114161437
 HF Exchange              Energy = -34.27894665307180
 One-Electron             Energy = -4139.06540258232053
 SCRF wf-dependent energy Energy =  -1.07242423507637
 Total Coulomb            Energy = 1883.33500515760034
 Nuclear repulsion Energy = 1430.98178945634322
   15    -953.6692295005      1.87e-08  
   16    -953.6692295006      5.23e-09  Convergence criterion met
 ---------------------------------------
 DFT Correlation          Energy =  -5.73524950249215
 DFT Exchange             Energy = -87.83400114161437
 HF Exchange              Energy = -34.27894665307180
 One-Electron             Energy = -4139.06540258232053
 SCRF wf-dependent energy Energy =  -1.07242423507637
 Total Coulomb            Energy = 1883.33500515760034
 Final Alpha MO Eigenvalues
            1           2           3           4           5           6
    1 -19.2973237 -19.2484703 -19.2477174 -19.2458203 -19.1541795 -10.3709056
            7           8           9          10          11          12
    1 -10.3474637 -10.3421694 -10.3419302 -10.3396610 -10.3113245 -10.2898479
           13          14          15          16          17          18
    1 -10.2803902 -10.2660086 -10.2616419 -10.2606013 -10.2604950 -10.2563467
           19          20          21          22          23          24
    1 -10.2397545 -10.2368578  -1.2252921  -1.1643515  -1.1636213  -1.1588982
           25          26          27          28          29          30
    1  -1.0749596  -0.9729120  -0.9461884  -0.9195012  -0.8830769  -0.8460514
           31          32          33          34          35          36
    1  -0.8359741  -0.8169769  -0.7658477  -0.7599224  -0.7202901  -0.6992618
           37          38          39          40          41          42
    1  -0.6786894  -0.6700632  -0.6472241  -0.6327424  -0.6207614  -0.5976857
           43          44          45          46          47          48
    1  -0.5847607  -0.5747583  -0.5603363  -0.5439568  -0.5353344  -0.5276284
           49          50          51          52          53          54
    1  -0.5163928  -0.5156957  -0.5005392  -0.4947779  -0.4942842  -0.4886875
           55          56          57          58          59          60
    1  -0.4828013  -0.4764775  -0.4705973  -0.4613894  -0.4470026  -0.4376297
           61          62          63          64          65          66
    1  -0.4345932  -0.4206623  -0.4090106  -0.3937689  -0.3636330  -0.3256704
           67          68          69          70          71          72
    1  -0.3222117  -0.3086950  -0.2906550  -0.2452066  -0.0685064   0.0070066
           73          74          75          76          77          78
    1   0.0274570   0.0314264   0.0374323   0.0383101   0.0415471   0.0486138
           79          80          81          82          83          84
    1   0.0560641   0.0629170   0.0703981   0.0728743   0.0777395   0.0838971
           85          86          87          88          89          90
    1   0.0874094   0.0963467   0.1003921   0.1024240   0.1041490   0.1111569
           91          92          93          94          95          96
    1   0.1123601   0.1219342   0.1274434   0.1280797   0.1391362   0.1405860
           97          98          99         100         101         102
    1   0.1442413   0.1510203   0.1611385   0.1688039   0.1809758   0.1845791
          103         104         105         106         107         108
    1   0.1866133   0.1913741   0.1952785   0.2105724   0.2132929   0.2141473
          109         110         111         112         113         114
    1   0.2217941   0.2285928   0.2322259   0.2349588   0.2372117   0.2425388
          115         116         117         118         119         120
    1   0.2519705   0.2557844   0.2607494   0.2667319   0.2744291   0.2759409
          121         122         123         124         125         126
    1   0.2809081   0.2887994   0.2901149   0.2914926   0.2988960   0.3034320
          127         128         129         130         131         132
    1   0.3087042   0.3123160   0.3130421   0.3176996   0.3201963   0.3246337
          133         134         135         136         137         138
    1   0.3268554   0.3340115   0.3386281   0.3452804   0.3561395   0.3598321
          139         140         141         142         143         144
    1   0.3611801   0.3639549   0.3748416   0.3763181   0.3811307   0.3843869
          145         146         147         148         149         150
    1   0.3872049   0.3894394   0.3915638   0.3973197   0.4062231   0.4092444
          151         152         153         154         155         156
    1   0.4172326   0.4193856   0.4252709   0.4360383   0.4381296   0.4441905
          157         158         159         160         161         162
    1   0.4478703   0.4526822   0.4588679   0.4648499   0.4686424   0.4715091
          163         164         165         166         167         168
    1   0.4727259   0.4817076   0.4852329   0.4879472   0.4918949   0.4937922
          169         170         171         172         173         174
    1   0.5041970   0.5085351   0.5112725   0.5157300   0.5203321   0.5278226
          175         176         177         178         179         180
    1   0.5321532   0.5446936   0.5465850   0.5510825   0.5528268   0.5648390
          181         182         183         184         185         186
    1   0.5656727   0.5743152   0.5766788   0.5848394   0.5911751   0.5933051
          187         188         189         190         191         192
    1   0.6072697   0.6176298   0.6223650   0.6233943   0.6317155   0.6368126
          193         194         195         196         197         198
    1   0.6417229   0.6431175   0.6453754   0.6605728   0.6637470   0.6667582
          199         200         201         202         203         204
    1   0.6727419   0.6815449   0.6862879   0.6908493   0.6957094   0.7104088
          205         206         207         208         209         210
    1   0.7200803   0.7227291   0.7301296   0.7332592   0.7406856   0.7494748
          211         212         213         214         215         216
    1   0.7549064   0.7591929   0.7635618   0.7678758   0.7755117   0.7780563
          217         218         219         220         221         222
    1   0.7899641   0.7946660   0.8016962   0.8065016   0.8080641   0.8114788
          223         224         225         226         227         228
    1   0.8205722   0.8217252   0.8273092   0.8390627   0.8422807   0.8463079
          229         230         231         232         233         234
    1   0.8636299   0.8696882   0.8795780   0.8823987   0.8881017   0.9038875
          235         236         237         238         239         240
    1   0.9067560   0.9141174   0.9251495   0.9316179   0.9374916   0.9460835
          241         242         243         244         245         246
    1   0.9544394   0.9598489   0.9734336   0.9750405   0.9951810   1.0155130
          247         248         249         250         251         252
    1   1.0353644   1.0425842   1.0511068   1.0569315   1.0661901   1.0741302
          253         254         255         256         257         258
    1   1.0755828   1.0863880   1.1016587   1.1101025   1.1185516   1.1196142
          259         260         261         262         263         264
    1   1.1232560   1.1341221   1.1476379   1.1541931   1.1784770   1.1846845
          265         266         267         268         269         270
    1   1.1861179   1.1907964   1.1944330   1.1988754   1.2034958   1.2189403
          271         272         273         274         275         276
    1   1.2340986   1.2422769   1.2452414   1.2666692   1.2772385   1.2812827
          277         278         279         280         281         282
    1   1.3009638   1.3150961   1.3210253   1.3244755   1.3381247   1.3407073
          283         284         285         286         287         288
    1   1.3565612   1.3680990   1.3759538   1.3885832   1.3975079   1.4010070
          289         290         291         292         293         294
    1   1.4052441   1.4165757   1.4353112   1.4439042   1.4553033   1.4641080
          295         296         297         298         299         300
    1   1.4709429   1.4775627   1.4894814   1.4942049   1.5096622   1.5167707
          301         302         303         304         305         306
    1   1.5229375   1.5366327   1.5436754   1.5519421   1.5565906   1.5824938
          307         308         309         310         311         312
    1   1.5856750   1.5902052   1.5951545   1.6085081   1.6183999   1.6218561
          313         314         315         316         317         318
    1   1.6341610   1.6386921   1.6572906   1.6575097   1.6723154   1.6934019
          319         320         321         322         323         324
    1   1.6990468   1.7085404   1.7102873   1.7126558   1.7202945   1.7250553
          325         326         327         328         329         330
    1   1.7322774   1.7345415   1.7406368   1.7542145   1.7603030   1.7629635
          331         332         333         334         335         336
    1   1.7741610   1.7797453   1.7851397   1.8051805   1.8462137   1.8567571
          337         338         339         340         341         342
    1   1.8599487   1.8675224   1.8847277   1.8951005   1.9032900   1.9104707
          343         344         345         346         347         348
    1   1.9132420   1.9161472   1.9441972   1.9562689   1.9689028   1.9741293
          349         350         351         352         353         354
    1   1.9809589   1.9923926   2.0068412   2.0096839   2.0154030   2.0298095
          355         356         357         358         359         360
    1   2.0303209   2.0490049   2.0633120   2.0686224   2.0789234   2.0922237
          361         362         363         364         365         366
    1   2.1064609   2.1192111   2.1219348   2.1392070   2.1421083   2.1588429
          367         368         369         370         371         372
    1   2.1765363   2.1819074   2.1888160   2.1939437   2.2061427   2.2124433
          373         374         375         376         377         378
    1   2.2162963   2.2293831   2.2367424   2.2388310   2.2517505   2.2646024
          379         380         381         382         383         384
    1   2.2893117   2.2909657   2.2976128   2.3082999   2.3283482   2.3440206
          385         386         387         388         389         390
    1   2.3501018   2.3585694   2.3665937   2.3870087   2.4006183   2.4052620
          391         392         393         394         395         396
    1   2.4074290   2.4351453   2.4395211   2.4494011   2.4573268   2.4661461
          397         398         399         400         401         402
    1   2.4886755   2.5167021   2.5307478   2.5352606   2.5462991   2.5608538
          403         404         405         406         407         408
    1   2.5683732   2.5955875   2.6024372   2.6036520   2.6262467   2.6383448
          409         410         411         412         413         414
    1   2.6467227   2.6570907   2.6628603   2.6802558   2.6929022   2.6980025
          415         416         417         418         419         420
    1   2.7050781   2.7109747   2.7130350   2.7171960   2.7202599   2.7388309
          421         422         423         424         425         426
    1   2.7496369   2.7547784   2.7615335   2.7662348   2.7914950   2.7982053
          427         428         429         430         431         432
    1   2.8083520   2.8107018   2.8131314   2.8171714   2.8236378   2.8344446
          433         434         435         436         437         438
    1   2.8482252   2.8542883   2.8724388   2.8739525   2.8783573   2.8811154
          439         440         441         442         443         444
    1   2.8955491   2.8977210   2.9032152   2.9160414   2.9254377   2.9298418
          445         446         447         448         449         450
    1   2.9387428   2.9425208   2.9551616   2.9590234   2.9704855   2.9754166
          451         452         453         454         455         456
    1   2.9775734   2.9950226   3.0059739   3.0144990   3.0233930   3.0265389
          457         458         459         460         461         462
    1   3.0355942   3.0398524   3.0460793   3.0574857   3.0814625   3.0841503
          463         464         465         466         467         468
    1   3.0888020   3.0985663   3.1056069   3.1264829   3.1293221   3.1367574
          469         470         471         472         473         474
    1   3.1424154   3.1578145   3.1701621   3.1748436   3.1873204   3.1902530
          475         476         477         478         479         480
    1   3.1916170   3.1947189   3.2062511   3.2106393   3.2145398   3.2209320
          481         482         483         484         485         486
    1   3.2214366   3.2342810   3.2473533   3.2565097   3.2586537   3.2625959
          487         488         489         490         491         492
    1   3.2665473   3.2794930   3.2809065   3.2973448   3.3021883   3.3156916
          493         494         495         496         497         498
    1   3.3216899   3.3230790   3.3429278   3.3446390   3.3534430   3.3685826
          499         500         501         502         503         504
    1   3.3780746   3.3946337   3.3990609   3.4041215   3.4196196   3.4211661
          505         506         507         508         509         510
    1   3.4324254   3.4343404   3.4408231   3.4515613   3.4528111   3.4646479
          511         512         513         514         515         516
    1   3.4691832   3.4735648   3.4782961   3.4821131   3.4912813   3.5022023
          517         518         519         520         521         522
    1   3.5060578   3.5146732   3.5212720   3.5366774   3.5402516   3.5508673
          523         524         525         526         527         528
    1   3.5564805   3.5667145   3.5685215   3.5779270   3.5988823   3.6028487
          529         530         531         532         533         534
    1   3.6044378   3.6183401   3.6292375   3.6396639   3.6488507   3.6498784
          535         536         537         538         539         540
    1   3.6725038   3.6877214   3.7017663   3.7054853   3.7183351   3.7408115
          541         542         543         544         545         546
    1   3.7445926   3.7531263   3.7817621   3.7905584   3.8002195   3.8215911
          547         548         549         550         551         552
    1   3.8429784   3.8587244   3.8729978   3.8929595   3.8942413   3.9213912
          553         554         555         556         557         558
    1   3.9377448   3.9542658   3.9644119   3.9657693   4.0026236   4.0320809
          559         560         561         562         563         564
    1   4.0431781   4.0497106   4.0552064   4.0739699   4.0869175   4.0996104
          565         566         567         568         569         570
    1   4.1110098   4.1184723   4.1320848   4.1532619   4.1582444   4.1631069
          571         572         573         574         575         576
    1   4.1914589   4.2034827   4.2302685   4.2448362   4.2553388   4.2575108
          577         578         579         580         581         582
    1   4.2632698   4.2706192   4.2817258   4.2924355   4.3178605   4.3212756
          583         584         585         586         587         588
    1   4.3332848   4.3405758   4.3562088   4.4000197   4.4100876   4.4217836
          589         590         591         592         593         594
    1   4.4434504   4.4539448   4.4747914   4.5093769   4.5283691   4.5400442
          595         596         597         598         599         600
    1   4.5845665   4.5939046   4.6181707   4.6388599   4.6415858   4.6671379
          601         602         603         604         605         606
    1   4.6765543   4.6947439   4.7018007   4.7064527   4.7130715   4.7735175
          607         608         609         610         611         612
    1   4.7900717   4.8255407   4.8448941   4.8728903   4.9135351   4.9347802
          613         614         615         616         617         618
    1   4.9429435   4.9446913   4.9744334   4.9832128   5.0057264   5.0194581
          619         620         621         622         623         624
    1   5.0422119   5.0986739   5.1510830   5.1530740   5.1865757   5.2120867
          625         626         627         628         629         630
    1   5.2669359   5.3008186   5.3101372   5.3129936   5.3181798   5.3227433
          631         632         633         634         635         636
    1   5.3441274   5.3706712   5.3750914   5.3883005   5.4298182   5.4654025
          637         638         639         640         641         642
    1   5.4998501   5.5230293   5.5266974   5.5297355   5.5457842   5.5591495
          643         644         645         646         647         648
    1   5.5916902   5.5950952   5.6305709   5.6551053   5.6818067   5.7305022
          649         650         651         652         653         654
    1   5.8044234   5.8163167   5.8315347   5.8551900   5.8600807   5.8967238
          655         656         657         658         659         660
    1   5.9960898   6.0510671   6.0805061   6.1101277   6.1102774   6.2359538
          661         662         663         664         665         666
    1   6.2574870   6.3904041   6.4134087   6.4209314   6.4480498   6.4641938
          667         668         669         670         671         672
    1   6.4683052   6.4719400   6.4811581   6.4874831   6.5683128   6.6549096
          673         674         675         676         677         678
    1   6.6593984   6.6835649   6.7047442   6.7736151   6.7783997   6.7871887
          679         680         681         682         683         684
    1   6.8851094   6.9090095   6.9267825   6.9417462   6.9466739   6.9715076
          685         686         687         688         689         690
    1   7.0332797   7.1007503   7.1214445   7.1510858   7.1668979   7.2333142
          691         692         693         694         695         696
    1   7.3712412   7.4034523   7.4172504   7.5010708   7.5720906  22.4197161
          697         698         699         700         701         702
    1  22.5600341  22.6953065  22.8102460  22.8384918  22.8801098  22.8932642
          703         704         705         706         707         708
    1  22.9461737  22.9912453  23.0634078  23.1154100  23.2006797  23.3089238
          709         710         711         712         713         714
    1  23.5444185  23.6745220  44.1070217  44.1269832  44.1462798  44.1650119
          715
    1  44.6991264
 SCF time:   CPU 7552.28s  wall 557.00s 
 DFT Correlation          Energy =  -5.73524950249215
 DFT Exchange             Energy = -87.83400114161437
 HF Exchange              Energy = -34.27894665307180
 One-Electron             Energy = -4139.06540258232053
 SCRF wf-dependent energy Energy =  -1.07242423507637
 Total Coulomb            Energy = 1883.33500515760034
 Nuclear repulsion Energy = 1430.98178945634322

************** Final PCM Free Energy Summary **************
 G_electrostatic  =      -0.06308966 hartree =     -39.58935696 kcal/mol
 G_cavitation     =       0.00000000 hartree =       0.00000000 kcal/mol
 G_dispersion     =       0.00000000 hartree =       0.00000000 kcal/mol
 G_repulsion      =       0.00000000 hartree =       0.00000000 kcal/mol
 --------------------------------------------------
 Non-electrostatic Free Energy =       0.00000000 hartree =       0.00000000 kcal/mol
 Total                         =      -0.06308966 hartree =     -39.58935696 kcal/mol
 --------------------------------------------------
 SCF Energy (H0 + V/2)                       =    -953.66922950 
 Solute Internal Energy (H0)                 =    -953.60613984 
 Total Free Energy (H0 + V/2 + non-elec)     =    -953.66922950 hartree
                                             = -598436.47663406 kcal/mol
***********************************************************

 SCF   energy =  -953.66922950
 Total energy =  -953.66922950
 MAX_CIS_SUBSPACE fits in available memory
 Direct TDDFT/TDA calculation will be performed
 Exchange:     0.1900 Hartree-Fock + 0.3500 B88 + 0.4600 muB88 + LR-HF
 Correlation:  0.1900 VWN5 + 0.8100 LYP
 Using SG-1 standard quadrature grid
 Triplet excitation energies requested
 Singlet excitation energies requested
 Adding PCM contribution to the XC response (LR-PCM)
 Optical dielectric constant (eps_inf) =  1.78
 CIS energy converged when residual is below 10e- 6
 ---------------------------------------------------
 Iter    Rts Conv    Rts Left    Ttl Dev     Max Dev
 ---------------------------------------------------
   1         0           7      0.001053    0.000176
   2         0           7      0.000384    0.000073
   3         0           7      0.000227    0.000085
   4         0           7      0.000197    0.000114
   5         1           6      0.000061    0.000030
   6         3           4      0.000045    0.000030
   7         4           3      0.000047    0.000041
   8         6           1      0.000035    0.000032
   9         6           1      0.000019    0.000016
  10         6           1      0.000008    0.000006
  11         6           1      0.000004    0.000002
  12         7           0      0.000003    0.000001    Roots Converged
 ---------------------------------------------------
 Triplets done: starting singlet calculation
 ---------------------------------------------------
 Iter    Rts Conv    Rts Left    Ttl Dev     Max Dev
 ---------------------------------------------------
  13         0           7      0.002262    0.000584
  14         0           7      0.000593    0.000129
  15         0           7      0.000322    0.000088
  16         0           7      0.000225    0.000067
  17         0           7      0.000211    0.000118
  18         1           6      0.000138    0.000090
  19         3           4      0.000054    0.000034
  20         4           3      0.000024    0.000014
  21         5           2      0.000011    0.000006
  22         6           1      0.000005    0.000002
  23         6           1      0.000004    0.000001
  24         7           0      0.000003    0.000001    Roots Converged
 ---------------------------------------------------
 
 ---------------------------------------------------
         TDDFT/TDA Excitation Energies              
 ---------------------------------------------------

 Excited state   1: excitation energy (eV) =       1.5904
 Total energy for state   1:                  -953.61078512 au
    Multiplicity: Triplet
    Trans. Mom.:  0.0000 X   0.0000 Y   0.0000 Z
    Strength   :     0.0000000000
    D(   65) --> V(    1) amplitude = -0.0887
    D(   69) --> V(    2) amplitude =  0.0743
    D(   70) --> V(    1) amplitude =  0.9760

 Excited state   2: excitation energy (eV) =       2.7656
 Total energy for state   2:                  -953.56759507 au
    Multiplicity: Triplet
    Trans. Mom.:  0.0000 X   0.0000 Y   0.0000 Z
    Strength   :     0.0000000000
    D(   65) --> V(    1) amplitude =  0.1839
    D(   67) --> V(    1) amplitude = -0.2333
    D(   69) --> V(    1) amplitude =  0.8341
    D(   69) --> V(    2) amplitude = -0.1064
    D(   69) --> V(    4) amplitude =  0.0749
    D(   70) --> V(    2) amplitude =  0.3531
    D(   70) --> V(    4) amplitude = -0.1128
    D(   70) --> V(   10) amplitude =  0.1021

 Excited state   3: excitation energy (eV) =       2.8657
 Total energy for state   3:                  -953.56391771 au
    Multiplicity: Singlet
    Trans. Mom.: -3.5599 X  -2.9113 Y   0.4508 Z
    Strength   :     1.4990630037
    D(   69) --> V(    1) amplitude = -0.1477
    D(   70) --> V(    1) amplitude =  0.9656

 Excited state   4: excitation energy (eV) =       3.5116
 Total energy for state   4:                  -953.54018008 au
    Multiplicity: Triplet
    Trans. Mom.:  0.0000 X   0.0000 Y   0.0000 Z
    Strength   :     0.0000000000
    D(   68) --> V(    1) amplitude =  0.8960
    D(   68) --> V(    2) amplitude =  0.2611
    D(   68) --> V(    4) amplitude = -0.1501
    D(   68) --> V(    6) amplitude = -0.0816
    D(   68) --> V(   10) amplitude =  0.2447
    D(   68) --> V(   13) amplitude = -0.0838
    D(   68) --> V(   27) amplitude =  0.0942

 Excited state   5: excitation energy (eV) =       3.5874
 Total energy for state   5:                  -953.53739394 au
    Multiplicity: Triplet
    Trans. Mom.:  0.0000 X   0.0000 Y   0.0000 Z
    Strength   :     0.0000000000
    D(   57) --> V(    6) amplitude =  0.0981
    D(   66) --> V(    1) amplitude =  0.8042
    D(   66) --> V(    2) amplitude =  0.1856
    D(   66) --> V(    4) amplitude = -0.1210
    D(   66) --> V(   10) amplitude =  0.1058
    D(   67) --> V(    1) amplitude =  0.1196
    D(   67) --> V(    4) amplitude = -0.0711
    D(   67) --> V(    6) amplitude =  0.1340
    D(   69) --> V(    4) amplitude =  0.0868
    D(   69) --> V(    6) amplitude = -0.1344
    D(   70) --> V(    2) amplitude =  0.1768
    D(   70) --> V(    4) amplitude =  0.2050
    D(   70) --> V(    6) amplitude = -0.3272

 Excited state   6: excitation energy (eV) =       3.6941
 Total energy for state   6:                  -953.53347385 au
    Multiplicity: Triplet
    Trans. Mom.:  0.0000 X   0.0000 Y   0.0000 Z
    Strength   :     0.0000000000
    D(   64) --> V(    1) amplitude =  0.0722
    D(   65) --> V(    1) amplitude =  0.0966
    D(   67) --> V(    1) amplitude = -0.4913
    D(   67) --> V(    2) amplitude =  0.1796
    D(   67) --> V(   10) amplitude = -0.0747
    D(   69) --> V(    1) amplitude = -0.4405
    D(   69) --> V(    4) amplitude = -0.1601
    D(   69) --> V(    6) amplitude = -0.0953
    D(   70) --> V(    2) amplitude =  0.6514
    D(   70) --> V(   10) amplitude =  0.1010

 Excited state   7: excitation energy (eV) =       3.7931
 Total energy for state   7:                  -953.52983494 au
    Multiplicity: Singlet
    Trans. Mom.:  0.0515 X   0.0454 Y  -0.0176 Z
    Strength   :     0.0004662058
    D(   68) --> V(    1) amplitude =  0.9143
    D(   68) --> V(    2) amplitude =  0.2392
    D(   68) --> V(    4) amplitude = -0.1388
    D(   68) --> V(    6) amplitude = -0.0728
    D(   68) --> V(   10) amplitude =  0.2160
    D(   68) --> V(   13) amplitude = -0.0739
    D(   68) --> V(   27) amplitude =  0.0736
    D(   69) --> V(    1) amplitude = -0.0902

 Excited state   8: excitation energy (eV) =       3.8435
 Total energy for state   8:                  -953.52798210 au
    Multiplicity: Triplet
    Trans. Mom.:  0.0000 X   0.0000 Y   0.0000 Z
    Strength   :     0.0000000000
    D(   65) --> V(    1) amplitude = -0.2145
    D(   65) --> V(   27) amplitude =  0.0739
    D(   66) --> V(    1) amplitude = -0.1732
    D(   66) --> V(    6) amplitude =  0.1208
    D(   67) --> V(    1) amplitude =  0.5997
    D(   67) --> V(    2) amplitude =  0.1700
    D(   67) --> V(    4) amplitude =  0.1403
    D(   67) --> V(    6) amplitude =  0.0827
    D(   69) --> V(    2) amplitude = -0.3210
    D(   69) --> V(    4) amplitude =  0.2156
    D(   69) --> V(    6) amplitude =  0.1142
    D(   69) --> V(   10) amplitude =  0.1108
    D(   70) --> V(    2) amplitude =  0.4757
    D(   70) --> V(    6) amplitude =  0.0787
    D(   70) --> V(   10) amplitude = -0.1262

 Excited state   9: excitation energy (eV) =       3.8494
 Total energy for state   9:                  -953.52776808 au
    Multiplicity: Singlet
    Trans. Mom.: -0.5475 X  -0.5103 Y   0.1814 Z
    Strength   :     0.0559214166
    D(   67) --> V(    1) amplitude =  0.1991
    D(   68) --> V(    1) amplitude =  0.0884
    D(   69) --> V(    1) amplitude =  0.9348
    D(   69) --> V(    2) amplitude = -0.1027
    D(   70) --> V(    1) amplitude =  0.1322
    D(   70) --> V(    2) amplitude =  0.0879
    D(   70) --> V(    4) amplitude =  0.0735
    D(   70) --> V(    6) amplitude =  0.0713

 Excited state  10: excitation energy (eV) =       4.3004
 Total energy for state  10:                  -953.51119343 au
    Multiplicity: Triplet
    Trans. Mom.:  0.0000 X   0.0000 Y   0.0000 Z
    Strength   :     0.0000000000
    D(   62) --> V(    1) amplitude =  0.0812
    D(   64) --> V(    1) amplitude = -0.2203
    D(   65) --> V(    1) amplitude =  0.2734
    D(   65) --> V(    4) amplitude =  0.1229
    D(   67) --> V(    1) amplitude =  0.2137
    D(   67) --> V(    2) amplitude = -0.2235
    D(   67) --> V(    4) amplitude = -0.1203
    D(   67) --> V(    6) amplitude = -0.0857
    D(   69) --> V(    2) amplitude = -0.4067
    D(   69) --> V(    4) amplitude = -0.5157
    D(   69) --> V(    6) amplitude = -0.3127
    D(   69) --> V(   10) amplitude = -0.1005
    D(   70) --> V(    4) amplitude =  0.3142
    D(   70) --> V(    6) amplitude =  0.1139
    D(   70) --> V(   10) amplitude =  0.1060

 Excited state  11: excitation energy (eV) =       4.4337
 Total energy for state  11:                  -953.50629516 au
    Multiplicity: Singlet
    Trans. Mom.:  0.2143 X   0.0816 Y   0.1649 Z
    Strength   :     0.0086664923
    D(   66) --> V(    1) amplitude =  0.9423
    D(   66) --> V(    2) amplitude =  0.1248
    D(   66) --> V(    4) amplitude = -0.0801
    D(   67) --> V(    1) amplitude =  0.1043
    D(   70) --> V(    2) amplitude =  0.1256
    D(   70) --> V(    4) amplitude =  0.1082
    D(   70) --> V(    6) amplitude = -0.1734

 Excited state  12: excitation energy (eV) =       4.5778
 Total energy for state  12:                  -953.50099671 au
    Multiplicity: Singlet
    Trans. Mom.:  0.0660 X  -0.0109 Y   0.0751 Z
    Strength   :     0.0011354756
    D(   66) --> V(    1) amplitude = -0.1841
    D(   67) --> V(    1) amplitude =  0.5648
    D(   67) --> V(    2) amplitude = -0.0932
    D(   67) --> V(    4) amplitude =  0.0884
    D(   69) --> V(    1) amplitude = -0.2187
    D(   69) --> V(    2) amplitude = -0.2685
    D(   69) --> V(    6) amplitude = -0.0707
    D(   69) --> V(   10) amplitude =  0.0885
    D(   70) --> V(    2) amplitude =  0.6528
    D(   70) --> V(    4) amplitude =  0.2013

 Excited state  13: excitation energy (eV) =       4.8637
 Total energy for state  13:                  -953.49049216 au
    Multiplicity: Singlet
    Trans. Mom.: -0.7270 X  -1.0716 Y   0.9103 Z
    Strength   :     0.2985552081
    D(   66) --> V(    6) amplitude =  0.1022
    D(   67) --> V(    1) amplitude = -0.5248
    D(   67) --> V(    2) amplitude =  0.1455
    D(   69) --> V(    1) amplitude =  0.0830
    D(   69) --> V(    2) amplitude =  0.3509
    D(   69) --> V(    4) amplitude =  0.0994
    D(   70) --> V(    2) amplitude =  0.6698
    D(   70) --> V(    6) amplitude = -0.1928

 Excited state  14: excitation energy (eV) =       5.0509
 Total energy for state  14:                  -953.48361093 au
    Multiplicity: Singlet
    Trans. Mom.: -0.4949 X  -0.0419 Y  -0.7262 Z
    Strength   :     0.0957973257
    D(   66) --> V(    1) amplitude = -0.1796
    D(   66) --> V(   10) amplitude =  0.0853
    D(   67) --> V(    1) amplitude = -0.1281
    D(   67) --> V(    6) amplitude =  0.1178
    D(   69) --> V(    2) amplitude = -0.0972
    D(   69) --> V(    6) amplitude = -0.1979
    D(   70) --> V(    2) amplitude = -0.1772
    D(   70) --> V(    3) amplitude =  0.0711
    D(   70) --> V(    4) amplitude =  0.6338
    D(   70) --> V(    6) amplitude = -0.6262
 
 ---------------------------------------------------

 Direct TDDFT calculation will be performed
 Exchange:     0.1900 Hartree-Fock + 0.3500 B88 + 0.4600 muB88 + LR-HF
 Correlation:  0.1900 VWN5 + 0.8100 LYP
 Using SG-1 standard quadrature grid
 ---------------------------------------------------
 Iter    Rts Conv    Rts Left    Ttl Dev     Max Dev
 ---------------------------------------------------
   1         0           7      0.001166    0.000186
   2         0           7      0.000342    0.000068
   3         0           7      0.000174    0.000041
   4         0           7      0.000096    0.000027
   5         0           7      0.000069    0.000027
   6         1           6      0.000036    0.000016
   7         2           5      0.000025    0.000011
   8         4           3      0.000011    0.000005
   9         5           2      0.000007    0.000003
  10         7           0      0.000004    0.000001    Roots Converged
 ---------------------------------------------------
 Triplets done: starting singlet calculation
 ---------------------------------------------------
 Iter    Rts Conv    Rts Left    Ttl Dev     Max Dev
 ---------------------------------------------------
  11         0           7      0.001453    0.000274
  12         0           7      0.000497    0.000159
  13         0           7      0.000241    0.000085
  14         0           7      0.000141    0.000044
  15         0           7      0.000086    0.000026
  16         0           7      0.000052    0.000020
  17         1           6      0.000027    0.000010
  18         3           4      0.000017    0.000007
  19         5           2      0.000008    0.000003
  20         5           2      0.000007    0.000003
  21         6           1      0.000005    0.000001
  22         7           0      0.000004    0.000001    Roots Converged
 ---------------------------------------------------
 
 ---------------------------------------------------
             TDDFT Excitation Energies              
 ---------------------------------------------------

 Excited state   1: excitation energy (eV) =        1.2629
 Total energy for state   1:                  -953.62281814 au
    Multiplicity: Triplet 
    Trans. Mom.:  0.0000 X   0.0000 Y   0.0000 Z
    Strength   :     0.0000000000
    X: D(   65) --> V(    1) amplitude = -0.1001
    X: D(   65) --> V(   10) amplitude =  0.0772
    X: D(   67) --> V(    2) amplitude = -0.0983
    X: D(   69) --> V(    2) amplitude =  0.0957
    X: D(   69) --> V(    4) amplitude = -0.0784
    X: D(   70) --> V(    1) amplitude =  1.0148
    Y: D(   70) --> V(    1) amplitude =  0.2934

 Excited state   2: excitation energy (eV) =        2.5421
 Total energy for state   2:                  -953.57581050 au
    Multiplicity: Triplet 
    Trans. Mom.:  0.0000 X   0.0000 Y   0.0000 Z
    Strength   :     0.0000000000
    X: D(   65) --> V(    1) amplitude =  0.2009
    X: D(   65) --> V(   10) amplitude = -0.0753
    X: D(   66) --> V(    6) amplitude = -0.0809
    X: D(   67) --> V(    1) amplitude = -0.2277
    X: D(   67) --> V(    4) amplitude =  0.1011
    X: D(   69) --> V(    1) amplitude =  0.8025
    Y: D(   69) --> V(    1) amplitude =  0.1043
    X: D(   69) --> V(    2) amplitude = -0.1126
    X: D(   69) --> V(    4) amplitude =  0.1215
    X: D(   70) --> V(    2) amplitude =  0.4129
    Y: D(   70) --> V(    2) amplitude =  0.0789
    X: D(   70) --> V(    4) amplitude = -0.1170
    X: D(   70) --> V(   10) amplitude =  0.0862

 Excited state   3: excitation energy (eV) =        2.6781
 Total energy for state   3:                  -953.57081198 au
    Multiplicity: Singlet 
    Trans. Mom.: -3.2274 X  -2.6434 Y   0.4138 Z
    Strength   :     1.1531208458
    X: D(   69) --> V(    1) amplitude = -0.1130
    X: D(   70) --> V(    1) amplitude =  0.9827
    Y: D(   70) --> V(    1) amplitude = -0.0726

[...]
      XZZZ     -26.1388   YZZZ      -6.7381   ZZZZ   -1295.4075
    5th-Order Moments (Debye-Ang^4)
       500   12506.2030    410  -11955.2904    320   -6880.4209
       230  -14453.6100    140  -21657.0022    050  -64622.3232
       401     748.5507    311     363.4721    221    1335.4056
       131    1348.6077    041    2538.9999    302    3266.2019
       212   -1757.8071    122   -1460.1567    032   -5544.6302
       203     354.8741    113    -162.6192    023    -187.8557
       104    2345.3725    014   -1904.7341    005   -2040.9577
 -----------------------------------------------------------------
 -----------------------------------------------------------------
                 RPA Excited-State Multipoles, State    4   
                  LMN = < X^L Y^M Z^N >
 -----------------------------------------------------------------
    Charge (ESU x 10^10)
                -0.0000
    Dipole Moment (Debye)
         X     -13.3733      Y     -12.4233      Z       4.2589
       Tot      18.7436
    Quadrupole Moments (Debye-Ang)
        XX     -96.4578     XY     -25.8670     YY    -180.1121
        XZ       3.8225     YZ       5.5590     ZZ     -98.8556
    Octopole Moments (Debye-Ang^2)
       XXX     -37.9714    XXY    -515.3325    XYY    -180.9879
       YYY   -1178.6757    XXZ      -3.2454    XYZ      51.2267
       YYZ       3.5686    XZZ     120.6171    YZZ    -226.8991
       ZZZ     -69.5666
    Hexadecapole Moments (Debye-Ang^3)
      XXXX   -4169.6714   XXXY   -1014.1954   XXYY   -2944.1280
      XYYY   -2786.9941   YYYY   -8968.0605   XXXZ      95.4178
      XXYZ     151.6607   XYYZ     246.0136   YYYZ     277.1932
      XXZZ   -1171.6438   XYZZ    -267.4284   YYZZ   -1194.5159
      XZZZ     -36.1123   YZZZ     -19.5522   ZZZZ   -1305.5036
    5th-Order Moments (Debye-Ang^4)
       500   13324.5382    410  -12121.9779    320   -7046.4697
       230  -14762.2659    140  -22040.5479    050  -64092.5688
       401     931.0341    311     397.2024    221    1412.9991
       131    1463.0003    041    2529.2209    302    3365.3978
       212   -1739.5194    122   -1410.2809    032   -5396.0807
       203     392.3919    113    -164.9315    023    -212.9870
       104    2348.2165    014   -1912.0730    005   -2073.3263
 -----------------------------------------------------------------
 -----------------------------------------------------------------
                 RPA Excited-State Multipoles, State    5   
                  LMN = < X^L Y^M Z^N >
 -----------------------------------------------------------------
    Charge (ESU x 10^10)
                 0.0000
    Dipole Moment (Debye)
         X      -6.9392      Y      -6.4472      Z       2.2756
       Tot       9.7416
    Quadrupole Moments (Debye-Ang)
        XX     -73.7444     XY      15.6577     YY    -126.7419
        XZ      -1.5420     YZ      -4.9045     ZZ    -100.3222
    Octopole Moments (Debye-Ang^2)
       XXX      67.0275    XXY    -351.8885    XYY      92.9376
       YYY    -789.4735    XXZ     -22.8700    XYZ      16.4186
       YYZ     -60.0424    XZZ     125.5115    YZZ    -225.2529
       ZZZ     -74.7483
    Hexadecapole Moments (Debye-Ang^3)
      XXXX   -3838.5416   XXXY    -394.0161   XXYY   -1901.4493
      XYYY   -1037.0089   YYYY   -6340.4100   XXXZ      34.4896
      XXYZ      38.3044   XYYZ      33.4125   YYYZ    -113.9842
      XXZZ   -1160.4288   XYZZ    -238.0724   YYZZ   -1159.2554
      XZZZ     -44.1215   YZZZ     -42.7780   ZZZZ   -1311.9646
    5th-Order Moments (Debye-Ang^4)
       500   14862.9731    410   -9832.1697    320   -3179.9376
       230   -8238.0210    140  -11039.6672    050  -46975.8844
       401     748.1903    311      39.3135    221     734.3800
       131     167.0134    041     115.8526    302    3446.7949
       212   -1624.1281    122   -1199.4680    032   -5083.5553
       203     353.4395    113    -229.9713    023    -352.0651
       104    2366.7795    014   -1909.1955    005   -2098.9193
 -----------------------------------------------------------------
 -----------------------------------------------------------------
                 RPA Excited-State Multipoles, State    6   
                  LMN = < X^L Y^M Z^N >
 -----------------------------------------------------------------
    Charge (ESU x 10^10)
                 0.0000
    Dipole Moment (Debye)
         X     -17.4182      Y     -16.5884      Z       6.3890
       Tot      24.8875
    Quadrupole Moments (Debye-Ang)
        XX     -93.6587     XY     -35.9752     YY    -202.9594
        XZ       3.7403     YZ      10.0765     ZZ     -95.8364
    Octopole Moments (Debye-Ang^2)
       XXX     -71.4012    XXY    -524.4125    XYY    -217.2939
       YYY   -1288.1820    XXZ     -10.2113    XYZ      48.4452
       YYZ      15.8831    XZZ     110.9644    YZZ    -229.8076
       ZZZ     -57.9134
    Hexadecapole Moments (Debye-Ang^3)
      XXXX   -4077.0069   XXXY   -1063.2778   XXYY   -2993.6655
      XYYY   -2930.0432   YYYY   -9479.0018   XXXZ     125.2877
      XXYZ     142.7828   XYYZ     232.6392   YYYZ     314.9120
      XXZZ   -1153.9873   XYZZ    -285.1271   YYZZ   -1223.4407
      XZZZ     -35.7787   YZZZ       0.4698   ZZZZ   -1274.4153
    5th-Order Moments (Debye-Ang^4)
       500   12782.6007    410  -12077.7915    320   -7146.4056
       230  -14941.6778    140  -22596.1396    050  -66447.6386
       401     687.1123    311     369.3916    221    1370.2045
       131    1398.3031    041    2657.3329    302    3249.8593
       212   -1757.9871    122   -1480.6638    032   -5559.4724
       203     373.9061    113    -168.8941    023    -168.6499
       104    2308.3384    014   -1885.8289    005   -1974.6951
 -----------------------------------------------------------------
 -----------------------------------------------------------------
                 RPA Excited-State Multipoles, State    7   
                  LMN = < X^L Y^M Z^N >
 -----------------------------------------------------------------
    Charge (ESU x 10^10)
                 0.0000
    Dipole Moment (Debye)
         X     -21.6338      Y     -18.3818      Z       3.9146
       Tot      28.6572
    Quadrupole Moments (Debye-Ang)
        XX     -77.7390     XY     -36.0558     YY    -205.4900
        XZ       1.9473     YZ       4.3448     ZZ    -101.6383
    Octopole Moments (Debye-Ang^2)
       XXX    -141.7081    XXY    -531.8291    XYY    -227.0587
       YYY   -1299.6454    XXZ       4.1120    XYZ      51.9853
       YYZ       4.1772    XZZ     113.5403    YZZ    -240.2393
       ZZZ     -71.2596
    Hexadecapole Moments (Debye-Ang^3)
      XXXX   -3773.4640   XXXY   -1019.5591   XXYY   -2960.1599
      XYYY   -2931.0350   YYYY   -9502.0562   XXXZ      19.9642
      XXYZ     120.7114   XYYZ     226.2120   YYYZ     276.2571
      XXZZ   -1166.5634   XYZZ    -279.2966   YYZZ   -1242.6662
      XZZZ     -43.8582   YZZZ     -27.9763   ZZZZ   -1318.2776
    5th-Order Moments (Debye-Ang^4)
       500   11472.0520    410  -12268.7976    320   -7214.3430
       230  -14873.5084    140  -22547.6254    050  -66449.9957
       401    1244.9190    311     399.2766    221    1339.6071
       131    1365.4320    041    2514.3304    302    3299.9068
       212   -1791.5024    122   -1490.1795    032   -5617.3090
       203     434.5977    113    -150.6730    023    -219.6522
       104    2330.7937    014   -1961.8823    005   -2090.1941
 -----------------------------------------------------------------
 -----------------------------------------------------------------
                 RPA Excited-State Multipoles, State    8   
                  LMN = < X^L Y^M Z^N >
 -----------------------------------------------------------------
    Charge (ESU x 10^10)
                 0.0000
    Dipole Moment (Debye)
         X     -24.5285      Y     -20.0349      Z       3.0204
       Tot      31.8146
    Quadrupole Moments (Debye-Ang)
        XX     -69.4071     XY     -41.0156     YY    -214.1813
        XZ       6.5207     YZ       3.8668     ZZ     -99.8352
    Octopole Moments (Debye-Ang^2)
       XXX    -186.0948    XXY    -531.3790    XYY    -247.7056
       YYY   -1346.1273    XXZ      -7.3947    XYZ      61.9484
       YYZ       8.6504    XZZ     105.1843    YZZ    -240.5968
       ZZZ     -73.7605
    Hexadecapole Moments (Debye-Ang^3)
      XXXX   -3641.5482   XXXY   -1096.5119   XXYY   -3000.1919
      XYYY   -3037.8824   YYYY   -9755.4052   XXXZ      80.9884
      XXYZ     104.9857   XYYZ     246.8954   YYYZ     302.0319
      XXZZ   -1126.2948   XYZZ    -280.1290   YYZZ   -1245.0732
      XZZZ     -26.8995   YZZZ     -27.4003   ZZZZ   -1310.7010
    5th-Order Moments (Debye-Ang^4)
       500   10810.5655    410  -12170.9419    320   -7462.7536
       230  -15177.2185    140  -23171.3758    050  -67896.5608
       401     998.3124    311     519.4302    221    1365.8642
       131    1459.5689    041    2665.8623    302    3103.4898
       212   -1798.1505    122   -1509.7066    032   -5644.8516
       203     396.4084    113    -120.2020    023    -204.8781
       104    2315.2471    014   -1956.0660    005   -2101.4185
 -----------------------------------------------------------------
 -----------------------------------------------------------------
                 RPA Excited-State Multipoles, State    9   
                  LMN = < X^L Y^M Z^N >
 -----------------------------------------------------------------
    Charge (ESU x 10^10)
                 0.0000
    Dipole Moment (Debye)
         X      -6.3652      Y      -5.8928      Z       2.0535
       Tot       8.9139
    Quadrupole Moments (Debye-Ang)
        XX     -73.3592     XY      17.5957     YY    -123.4500
        XZ      -1.2543     YZ      -5.2048     ZZ    -100.5922
    Octopole Moments (Debye-Ang^2)
       XXX      70.5014    XXY    -348.0997    XYY     101.7845
       YYY    -772.0295    XXZ     -23.3546    XYZ      16.7150
       YYZ     -60.7300    XZZ     126.5341    YZZ    -225.0194
       ZZZ     -75.6393
    Hexadecapole Moments (Debye-Ang^3)
      XXXX   -3840.8125   XXXY    -384.3135   XXYY   -1882.3654
      XYYY    -994.9154   YYYY   -6252.1364   XXXZ      34.7560
      XXYZ      37.2821   XYYZ      33.7908   YYYZ    -115.3182
      XXZZ   -1161.4469   XYZZ    -236.3724   YYZZ   -1157.5411
      XZZZ     -42.0268   YZZZ     -43.2928   ZZZZ   -1313.9416
    5th-Order Moments (Debye-Ang^4)
       500   14891.0722    410   -9819.4778    320   -3138.0558
       230   -8146.0598    140  -10838.9058    050  -46544.4523
       401     751.4069    311      40.6828    221     732.2896
       131     168.9596    041     117.8906    302    3452.5215
       212   -1623.3353    122   -1194.8046    032   -5075.9619
       203     351.6577    113    -226.4166    023    -351.8042
       104    2372.8448    014   -1908.9224    005   -2105.6157
 -----------------------------------------------------------------
 -----------------------------------------------------------------
                 RPA Excited-State Multipoles, State   10   
                  LMN = < X^L Y^M Z^N >
 -----------------------------------------------------------------
    Charge (ESU x 10^10)
                -0.0000
    Dipole Moment (Debye)
         X     -19.4294      Y     -17.8704      Z       5.9746
       Tot      27.0656
    Quadrupole Moments (Debye-Ang)
        XX     -87.6297     XY     -36.1815     YY    -205.8083
        XZ       1.1452     YZ       7.4868     ZZ     -97.0257
    Octopole Moments (Debye-Ang^2)
       XXX    -104.2583    XXY    -534.5333    XYY    -226.7311
       YYY   -1303.3706    XXZ      -0.2248    XYZ      49.7925
       YYZ      10.8524    XZZ     107.0248    YZZ    -234.8503
       ZZZ     -61.3211
    Hexadecapole Moments (Debye-Ang^3)
      XXXX   -3962.0725   XXXY   -1053.6427   XXYY   -3008.1845
      XYYY   -2966.5368   YYYY   -9551.5214   XXXZ      69.7797
      XXYZ     130.4637   XYYZ     227.0249   YYYZ     296.7340
      XXZZ   -1145.1257   XYZZ    -285.1560   YYZZ   -1235.0270
      XZZZ     -47.0643   YZZZ     -11.6259   ZZZZ   -1289.5158
    5th-Order Moments (Debye-Ang^4)
       500   12266.3606    410  -12208.0902    320   -7232.4539
       230  -15053.3177    140  -22796.4284    050  -66835.5183
       401     942.8292    311     395.8614    221    1365.6588
       131    1385.8826    041    2597.8137    302    3204.4882
       212   -1780.1173    122   -1497.7475    032   -5606.5448
       203     415.2939    113    -165.8715    023    -189.8679
       104    2295.6190    014   -1923.7025    005   -2015.1441
 -----------------------------------------------------------------
 -----------------------------------------------------------------
                 RPA Excited-State Multipoles, State   11   
                  LMN = < X^L Y^M Z^N >
 -----------------------------------------------------------------
    Charge (ESU x 10^10)
                -0.0000
    Dipole Moment (Debye)
         X     -10.9503      Y     -10.2205      Z       3.5425
       Tot      15.3922
    Quadrupole Moments (Debye-Ang)
        XX    -102.1807     XY     -24.5751     YY    -172.7447
        XZ       7.2757     YZ       6.1982     ZZ     -98.8322
    Octopole Moments (Debye-Ang^2)
       XXX     -27.4452    XXY    -529.1370    XYY    -192.4176
       YYY   -1165.4211    XXZ       0.4896    XYZ      61.5148
       YYZ      10.0474    XZZ     129.1204    YZZ    -218.6956
       ZZZ     -73.7566
    Hexadecapole Moments (Debye-Ang^3)
      XXXX   -4276.1151   XXXY   -1065.7308   XXYY   -3043.4622
      XYYY   -2922.3636   YYYY   -9036.9633   XXXZ     115.0972
      XXYZ     177.5991   XYYZ     292.2478   YYYZ     319.0502
      XXZZ   -1178.7930   XYZZ    -250.7922   YYZZ   -1156.6970
      XZZZ     -24.0381   YZZZ     -19.1698   ZZZZ   -1312.8056
    5th-Order Moments (Debye-Ang^4)
       500   13505.1050    410  -12379.5706    320   -7429.9923
       230  -15433.2145    140  -23097.9592    050  -65179.9542
       401    1008.2242    311     491.1649    221    1550.4696
       131    1693.0147    041    2776.4553    302    3414.5359
       212   -1727.8344    122   -1354.1878    032   -5229.6645
       203     384.3424    113    -144.2405    023    -200.3757
       104    2390.6480    014   -1891.0934    005   -2108.8019
 -----------------------------------------------------------------
 -----------------------------------------------------------------
                 RPA Excited-State Multipoles, State   12   
                  LMN = < X^L Y^M Z^N >
 -----------------------------------------------------------------
    Charge (ESU x 10^10)
                 0.0000
    Dipole Moment (Debye)
         X     -15.4573      Y     -14.6720      Z       5.6240
       Tot      22.0414
    Quadrupole Moments (Debye-Ang)
        XX     -90.1765     XY     -26.9767     YY    -189.7433
        XZ       3.4918     YZ       8.6657     ZZ     -98.1183
    Octopole Moments (Debye-Ang^2)
       XXX     -61.9248    XXY    -510.0875    XYY    -178.1264
       YYY   -1214.7007    XXZ      -8.2222    XYZ      49.3305
       YYZ      13.1926    XZZ     113.3232    YZZ    -231.9971
       ZZZ     -64.7656
    Hexadecapole Moments (Debye-Ang^3)
      XXXX   -4014.2094   XXXY    -973.9333   XXYY   -2884.1561
      XYYY   -2718.8495   YYYY   -9067.8263   XXXZ     106.7794
      XXYZ     132.3520   XYYZ     225.7463   YYYZ     301.1873
      XXZZ   -1151.6601   XYZZ    -275.7056   YYZZ   -1220.0069
      XZZZ     -32.6638   YZZZ     -10.3578   ZZZZ   -1294.9929
    5th-Order Moments (Debye-Ang^4)
       500   12829.3677    410  -11930.4615    320   -6756.6578
       230  -14307.3820    140  -21409.0381    050  -64101.1452
       401     742.8949    311     365.6026    221    1337.2900
       131    1348.9644    041    2570.8316    302    3245.1930
       212   -1757.1097    122   -1450.9730    032   -5521.5293
       203     370.3594    113    -158.2927    023    -184.9679
       104    2320.0485    014   -1916.8057    005   -2039.4810
 -----------------------------------------------------------------
 -----------------------------------------------------------------
                 RPA Excited-State Multipoles, State   13   
                  LMN = < X^L Y^M Z^N >
 -----------------------------------------------------------------
    Charge (ESU x 10^10)
                 0.0000
    Dipole Moment (Debye)
         X     -16.7197      Y     -14.6259      Z       3.6561
       Tot      22.5129
    Quadrupole Moments (Debye-Ang)
        XX     -87.2612     XY     -27.6382     YY    -187.5917
        XZ       1.3349     YZ       3.3299     ZZ    -102.3875
    Octopole Moments (Debye-Ang^2)
       XXX     -84.9585    XXY    -518.7249    XYY    -184.9781
       YYY   -1205.7628    XXZ      -3.4937    XYZ      43.1364
       YYZ      -6.4080    XZZ     118.7967    YZZ    -237.4993
       ZZZ     -73.5497
    Hexadecapole Moments (Debye-Ang^3)
      XXXX   -3927.8890   XXXY    -956.9638   XXYY   -2887.3887
      XYYY   -2733.3917   YYYY   -9024.2850   XXXZ      49.4401
      XXYZ     123.2534   XYYZ     200.6943   YYYZ     222.0278
      XXZZ   -1181.1647   XYZZ    -276.8118   YYZZ   -1232.8538
      XZZZ     -38.5888   YZZZ     -29.9337   ZZZZ   -1323.7207
    5th-Order Moments (Debye-Ang^4)
       500   12251.1912    410  -12144.0449    320   -6843.3626
       230  -14361.8668    140  -21481.5362    050  -63956.1056
       401    1034.9777    311     321.3554    221    1283.4707
       131    1231.0127    041    2221.2232    302    3356.7245
       212   -1777.3547    122   -1462.8718    032   -5559.9866
       203     394.7440    113    -167.6647    023    -241.0407
       104    2347.4568    014   -1960.2157    005   -2104.6414
 -----------------------------------------------------------------
 -----------------------------------------------------------------
                 RPA Excited-State Multipoles, State   14   
                  LMN = < X^L Y^M Z^N >
 -----------------------------------------------------------------
    Charge (ESU x 10^10)
                -0.0000
    Dipole Moment (Debye)
         X     -18.0591      Y     -17.0106      Z       6.4266
       Tot      25.6279
    Quadrupole Moments (Debye-Ang)
        XX     -88.9865     XY     -30.3785     YY    -199.5586
        XZ      -2.2636     YZ       7.2666     ZZ    -100.8147
    Octopole Moments (Debye-Ang^2)
       XXX     -54.5735    XXY    -493.5348    XYY    -165.5463
       YYY   -1239.3522    XXZ     -11.8669    XYZ      30.2720
       YYZ      -1.1216    XZZ     105.4739    YZZ    -247.4124
       ZZZ     -61.4399
    Hexadecapole Moments (Debye-Ang^3)
      XXXX   -4013.7601   XXXY    -914.7485   XXYY   -2754.1756
      XYYY   -2537.8648   YYYY   -9037.5095   XXXZ      43.9965
      XXYZ      90.6681   XYYZ     142.2615   YYYZ     212.7953
      XXZZ   -1173.3096   XYZZ    -307.0589   YYZZ   -1293.2275
      XZZZ     -52.6740   YZZZ     -14.9794   ZZZZ   -1309.2492
    5th-Order Moments (Debye-Ang^4)
       500   13080.5740    410  -11656.6687    320   -6240.2958
       230  -13362.5338    140  -19927.9629    050  -63078.7679
       401     765.5096    311     152.7332    221    1066.3154
       131     899.3587    041    2037.1481    302    3290.8034
       212   -1789.3198    122   -1558.3525    032   -5854.7590
       203     396.4367    113    -198.6023    023    -224.0386
       104    2281.4353    014   -1992.2854    005   -2035.8937
 -----------------------------------------------------------------
 Total job time:  5895.99s(wall), 85051.69s(cpu) 
 Thu Jan 30 23:37:37 2025

        *************************************************************
        *                                                           *
        *  Thank you very much for using Q-Chem.  Have a nice day.  *
        *                                                           *
        *************************************************************


