
Running Job 1 of 1 Pelargonidin_Q2_tddft_full.in
qchem Pelargonidin_Q2_tddft_full.in_1333670.0 /data/brussel/103/vsc10365/activedata/TDDFTAnthocyanidines/qchem1333670/ 1
/apps/brussel/RL8/skylake/software/Q-Chem/6.2.0/exe/qcprog.exe_s Pelargonidin_Q2_tddft_full.in_1333670.0 /data/brussel/103/vsc10365/activedata/TDDFTAnthocyanidines/qchem1333670/
                  Welcome to Q-Chem
     A Quantum Leap Into The Future Of Chemistry


 Q-Chem 6.2, Q-Chem, Inc., Pleasanton, CA (2024)

 License issued to: SRG Prof. Dr. Frank De Proft, Vrije Universiteit Brussel

 E. Epifanovsky,  A. T. B. Gilbert,  Xintian Feng,  Joonho Lee,  Yuezhi Mao,  
 N. Mardirossian,  P. Pokhilko,  A. White,  M. Wormit,  M. P. Coons,  
 A. L. Dempwolff,  Zhengting Gan,  D. Hait,  P. R. Horn,  L. D. Jacobson,  
 I. Kaliman,  J. Kussmann,  A. W. Lange,  Ka Un Lao,  D. S. Levine,  Jie Liu,  
 S. C. McKenzie,  A. F. Morrison,  K. D. Nanda,  F. Plasser,  D. R. Rehn,  
 M. L. Vidal,  Zhi-Qiang You,  Ying Zhu,  Huseyin Aksu,  B. Alam,  
 B. Albrecht,  A. Aldossary,  E. Alguire,  J. H. Andersen,  
 J. E. Arias-Martinez,  V. Athavale,  D. Barton,  K. Begam,  A. Behn,  
 N. Bellonzi,  Y. A. Bernard,  E. J. Berquist,  H. Burton,  A. Carreras,  
 K. Carter-Fenk,  Mathew Chow,  Romit Chakraborty,  Chandrima Chakravarty,  
 Junhan Chen,  A. D. Chien,  K. D. Closser,  V. Cofer-Shabica,  L. Cunha,  
 S. Dasgupta,  Jia Deng,  Joseph Dickinson,  M. de Wergifosse,  
 M. Diedenhofen,  Hainam Do,  Wenjie Dou,  S. Ehlert,  Po-Tung Fang,  
 S. Fatehi,  Qingguo Feng,  Jonathan Fetherolf,  T. Friedhoff,  
 Thomas Froitzheim,  Sarai Folkestad,  B. Ganoe,  J. Gayvert,  Qinghui Ge,  
 G. Gidofalvi,  M. Gimferrer,  M. Goldey,  Montgomery Gray,  J. Gomes,  
 C. Gonzalez-Espinoza,  S. Gulania,  A. Gunina,  J. A. Gyamfi,  
 M. W. D. Hanson-Heine,  P. H. P. Harbach,  A. W. Hauser,  M. F. Herbst,  
 M. Hernandez Vera,  M. Hodecker,  Z. C. Holden,  S. Houck,  Xunkun Huang,  
 Kerwin Hui,  B. C. Huynh,  K. Ikeda,  M. Ivanov,  Nayanthara K. Jayadev,  
 Hyunjun Ji,  Zuxin Jin,  Hanjie Jiang,  Subrata Jana,  B. Kaduk,  
 S. Kaehler,  R. Kang,  K. Khistyaev,  Jaehoon Kim,  Yongbin Kim,  
 P. Klunzinger,  Z. Koczor-Benda,  Joong Hoon Koh,  D. Kosenkov,  
 Saikiran Kotaru,  L. Koulias,  T. Kowalczyk,  C. M. Krauter,  K. Kue,  
 A. Kunitsa,  T. Kus,  A. Landau,  K. V. Lawler,  D. Lefrancois,  S. Lehtola,  
 Rain Li,  Shaozhi Li,  Tao E. Li,  Yi-Pei Li,  Jiashu Liang,  M. Liebenthal,  
 Hung-Hsuan Lin,  You-Sheng Lin,  Fenglai Liu,  Kuan-Yu Liu,  Xiao Liu,  
 M. Loipersberger,  A. Luenser,  C. Malbon,  Aniket Mandal,  Manisha,  
 A. Manjanath,  P. Manohar,  E. Mansoor,  S. F. Manzer,  Shan-Ping Mao,  
 A. V. Marenich,  T. Markovich,  S. Mason,  F. Matz,  S. A. Maurer,  
 Samuel May,  Alexandra McIsaac,  P. F. McLaughlin,  M. F. S. J. Menger,  
 J.-M. Mewes,  S. A. Mewes,  P. Morgante,  Mohammad Mostafanejad,  
 Madhubani Mukherjee,  J. W. Mullinax,  Quyen Nguyen,  Avik Kumar Ojha,  
 K. J. Oosterbaan,  Eno Paenurk,  Xiaoliang Pan,  G. Paran,  V. Parravicini,  
 Alexander C. Paul,  Suranjan K. Paul,  F. Pavosevic,  Zheng Pei,  S. Prager,  
 E. I. Proynov,  E. Ramos,  B. Rana,  A. E. Rask,  A. Rettig,  R. M. Richard,  
 F. Rob,  E. Rossomme,  T. Scheele,  M. Scheurer,  M. Schneider,  
 P. E. Schneider,  Tim K. Schramm,  N. Sergueev,  S. M. Sharada,  
 Hengyuan Shen,  W. Skomorowski,  D. W. Small,  C. J. Stein,  
 Alistair J. Sterling,  Yingli Su,  Yu-Chuan Su,  E. J. Sundstrom,  
 J. Talbot,  Zhen Tao,  J. Thirman,  Hung-Yi Tsai,  T. Tsuchimochi,  
 N. M. Tubman,  C. Utku,  S. P. Veccham,  O. Vydrov,  Rahel Weiss,  
 J. Wenzel,  Jonathan Wong,  J. Witte,  H. Wu,  Yanze Wu,  A. Yamada,  
 Chou-Hsun Yang,  Kun Yao,  S. Yeganeh,  S. R. Yost,  Qi Yu,  A. Zech,  
 F. Zeller,  Chongxiao Zhao,  Igor Ying Zhang,  Xing Zhang,  Yu Zhang,  
 D. Zuev,  A. Aspuru-Guzik,  A. T. Bell,  N. A. Besley,  K. B. Bravaya,  
 B. R. Brooks,  D. Casanova,  Jeng-Da Chai,  Hsing-Ta Chen,  S. Coriani,  
 C. J. Cramer,  A. E. DePrince, III,  R. A. DiStasio Jr.,  A. Dreuw,  
 B. D. Dunietz,  T. R. Furlani,  W. A. Goddard III,  S. Grimme,  
 S. Hammes-Schiffer,  T. Head-Gordon,  W. J. Hehre,  Chao-Ping Hsu,  
 T.-C. Jagau,  Yousung Jung,  A. Klamt,  Jing Kong,  D. S. Lambrecht,  
 Xiangyuan Li,  WanZhen Liang,  N. J. Mayhall,  C. W. McCurdy,  J. B. Neaton,  
 T. Neudecker,  C. Ochsenfeld,  J. A. Parkhill,  R. Peverati,  
 V. A. Rassolov,  Haisheng Ren,  Yihan Shao,  L. V. Slipchenko,  
 R. P. Steele,  J. E. Subotnik,  A. J. W. Thom,  A. Tkatchenko,  
 D. G. Truhlar,  T. Van Voorhis,  Fan Wang,  T. A. Wesolowski,  K. B. Whaley,  
 H. L. Woodcock III,  P. M. Zimmerman,  S. Faraji,  P. M. W. Gill,  
 M. Head-Gordon,  J. M. Herbert,  A. I. Krylov

 Contributors to earlier versions of Q-Chem not listed above: 
 R. D. Adamson,  B. Austin,  R. Baer,  J. Baker,  G. J. O. Beran,  
 K. Brandhorst,  S. T. Brown,  E. F. C. Byrd,  Arup K. Chakraborty,  
 G. K. L. Chan,  Chun-Min Chang,  Yunqing Chen,  C.-L. Cheng,  
 Siu Hung Chien,  D. M. Chipman,  D. L. Crittenden,  H. Dachsel,  
 R. J. Doerksen,  A. D. Dutoi,  R. G. Edgar,  J. Fosso-Tande,  
 L. Fusti-Molnar,  D. Ghosh,  A. Ghysels,  A. Golubeva-Zadorozhnaya,  
 J. Gonthier,  M. S. Gordon,  S. R. Gwaltney,  G. Hawkins,  J. E. Herr,  
 A. Heyden,  S. Hirata,  E. G. Hohenstein,  G. Kedziora,  F. J. Keil,  
 C. Kelley,  Jihan Kim,  R. A. King,  R. Z. Khaliullin,  P. P. Korambath,  
 W. Kurlancheek,  A. Laurent,  A. M. Lee,  M. S. Lee,  S. V. Levchenko,  
 Ching Yeh Lin,  D. Liotard,  E. Livshits,  R. C. Lochan,  I. Lotan,  
 L. A. Martinez-Martinez,  P. E. Maslen,  N. Nair,  D. P. O'Neill,  
 D. Neuhauser,  E. Neuscamman,  C. M. Oana,  R. Olivares-Amaya,  R. Olson,  
 T. M. Perrine,  B. Peters,  P. A. Pieniazek,  A. Prociuk,  Y. M. Rhee,  
 J. Ritchie,  M. A. Rohrdanz,  E. Rosta,  N. J. Russ,  H. F. Schaefer III,  
 M. W. Schmidt,  N. E. Schultz,  S. Sharma,  N. Shenvi,  C. D. Sherrill,  
 A. C. Simmonett,  A. Sodt,  T. Stein,  D. Stuck,  K. S. Thanthiriwatte,  
 V. Vanovschi,  L. Vogt,  Tao Wang,  A. Warshel,  M. A. Watson,  
 C. F. Williams,  Q. Wu,  X. Xu,  Jun Yang,  W. Zhang,  Yan Zhao

   Please cite Q-Chem as follows:
  "Software for the frontiers of quantum chemistry:
   An overview of developments in the Q-Chem 5 package"
   J. Chem. Phys. 155, 084801 (2021)
   https://doi.org/10.1063/5.0055522 (open access)

 Q-Chem 6.2.0 for Intel X86 EM64T Linux

 Parts of Q-Chem use Armadillo 9.900.5 (Nocturnal Misbehaviour).
 http://arma.sourceforge.net/

 Q-Chem begins on Thu Jan 30 22:55:35 2025  

 Host: 
0

     Scratch files written to /data/brussel/103/vsc10365/activedata/TDDFTAnthocyanidines/qchem1333670//
 May224 |scratch|qcdevops|jenkins|workspace|build_RNUM -1
 Processing $rem in /apps/brussel/RL8/skylake/software/Q-Chem/6.2.0/config/preferences:
 Processing $rem in /user/brussel/103/vsc10365/.qchemrc:
 Symmetry turned off for PCM/SM12/SMD calculation

 Checking the input file for inconsistencies... 	...done.

--------------------------------------------------------------
User input:
--------------------------------------------------------------
$comment
TDDFT calculation of pelargonidin Q2 structure
nprocs=16
mem=64gb
$end

$molecule
0 1
C   -4.4389280    0.3881003   -1.0445224
C   -4.6466722   -0.4272419    0.0868204
C   -3.7635286   -0.3837454    1.1371038
C   -2.6295775    0.4812120    1.0973850
C   -2.4778432    1.2715421   -0.0586227
C   -3.3575837    1.2445583   -1.1333475
C   -1.6744916    0.5925991    2.1075427
C   -0.5635299    1.4602528    2.0318633
C   -0.4814680    2.2404553    0.8246676
O   -1.4228127    2.1047766   -0.1284281
C    0.5383392    3.2003137    0.4649714
C    1.4941824    3.6623469    1.3922266
C    2.4433486    4.6010153    1.0310020
C    2.4731458    5.0992437   -0.2701133
C    1.5411093    4.6529531   -1.2109316
C    0.5911027    3.7242598   -0.8464418
O   -5.3074887    0.3561732   -2.0951311
H   -5.5063445   -1.0864374    0.1234902
O   -3.9067768   -1.1417608    2.2570764
H   -3.1993975    1.8693633   -2.0005692
H   -1.7667177   -0.0126857    3.0000742
O    0.3107330    1.5332337    2.9695008
H    1.4748221    3.2823466    2.3997142
H    3.1665374    4.9550378    1.7562953
O    3.3904134    6.0217625   -0.6780004
H    1.5757348    5.0415515   -2.2203778
H   -0.1187505    3.3895813   -1.5883471
H   -6.0222434   -0.2738655   -1.9239494
H   -4.6999377   -1.6928141    2.1884685
H    3.9773535    6.2548821    0.0561505
$end

$rem
BASIS  =  def2-ma-TZVP
MEM_STATIC  =  2000
MEM_TOTAL  =  64000
METHOD  =  CAM-B3LYP
SOLVENT_METHOD = pcm
SYMMETRY_IGNORE  =  1
CIS_N_ROOTS = 7
CIS_SINGLETS = true
CIS_TRIPLETS = true
CISTR_PRINT = true
RPA = true
PRINT_ORBITALS = true
SCF_PRINT = 1
SCF_FINAL_PRINT = 2
PRINT_GENERAL_BASIS = true
CISTR_PRINT = true
PRINT_RADII_GYRE = true
MULTIPOLE_ORDER = 5
CIS_AMPL_PRINT = 5
CIS_AMPL_ANAL = true
STATE_ANALYSIS = true
$end

$pcm
Theory   CPCM
Method   SWIG
Solver   Inversion
Radii    Bondi
$end

$solvent
Dielectric         78.39
OpticalDielectric  1.777849
$end


--------------------------------------------------------------
 ----------------------------------------------------------------
             Standard Nuclear Orientation (Angstroms)
    I     Atom           X                Y                Z
 ----------------------------------------------------------------
    1      C      -4.4389280000     0.3881003000    -1.0445224000
    2      C      -4.6466722000    -0.4272419000     0.0868204000
    3      C      -3.7635286000    -0.3837454000     1.1371038000
    4      C      -2.6295775000     0.4812120000     1.0973850000
    5      C      -2.4778432000     1.2715421000    -0.0586227000
    6      C      -3.3575837000     1.2445583000    -1.1333475000
    7      C      -1.6744916000     0.5925991000     2.1075427000
    8      C      -0.5635299000     1.4602528000     2.0318633000
    9      C      -0.4814680000     2.2404553000     0.8246676000
   10      O      -1.4228127000     2.1047766000    -0.1284281000
   11      C       0.5383392000     3.2003137000     0.4649714000
   12      C       1.4941824000     3.6623469000     1.3922266000
   13      C       2.4433486000     4.6010153000     1.0310020000
   14      C       2.4731458000     5.0992437000    -0.2701133000
   15      C       1.5411093000     4.6529531000    -1.2109316000
   16      C       0.5911027000     3.7242598000    -0.8464418000
   17      O      -5.3074887000     0.3561732000    -2.0951311000
   18      H      -5.5063445000    -1.0864374000     0.1234902000
   19      O      -3.9067768000    -1.1417608000     2.2570764000
   20      H      -3.1993975000     1.8693633000    -2.0005692000
   21      H      -1.7667177000    -0.0126857000     3.0000742000
   22      O       0.3107330000     1.5332337000     2.9695008000
   23      H       1.4748221000     3.2823466000     2.3997142000
   24      H       3.1665374000     4.9550378000     1.7562953000
   25      O       3.3904134000     6.0217625000    -0.6780004000
   26      H       1.5757348000     5.0415515000    -2.2203778000
   27      H      -0.1187505000     3.3895813000    -1.5883471000
   28      H      -6.0222434000    -0.2738655000    -1.9239494000
   29      H      -4.6999377000    -1.6928141000     2.1884685000
   30      H       3.9773535000     6.2548821000     0.0561505000
 ----------------------------------------------------------------
 Nuclear Repulsion Energy =        1427.89738833 hartrees
 There are       70 alpha and       70 beta electrons
 Requested basis set is def2-ma-TZVP
 Basis set in general basis input format:
-----------------------------------------------------------------------
$basis
C    0
S    6    1.000000
   1.35753497E+04    2.22458144E-04 
   2.03523337E+03    1.72327383E-03 
   4.63225624E+02    8.92557153E-03 
   1.31200196E+02    3.57279845E-02 
   4.28530159E+01    1.10762599E-01 
   1.55841858E+01    2.42956276E-01 
S    2    1.000000
   6.20671385E+00    4.14402634E-01 
   2.57648965E+00    2.37449687E-01 
S    1    1.000000
   5.76963394E-01    1.00000000E+00 
S    1    1.000000
   2.29728314E-01    1.00000000E+00 
S    1    1.000000
   9.51644400E-02    1.00000000E+00 
S    1    1.000000
   4.84754014E-02    1.00000000E+00 
P    4    1.000000
   3.46972322E+01    5.33336578E-03 
   7.95826228E+00    3.58641091E-02 
   2.37808269E+00    1.42158733E-01 
   8.14332082E-01    3.42704718E-01 
P    1    1.000000
   2.88875473E-01    4.64458224E-01 
P    1    1.000000
   1.00568237E-01    2.49557899E-01 
D    1    1.000000
   1.09700000E+00    1.00000000E+00 
D    1    1.000000
   3.18000000E-01    1.00000000E+00 
F    1    1.000000
   7.61000000E-01    1.00000000E+00 
****
C    0
S    6    1.000000
   1.35753497E+04    2.22458144E-04 
   2.03523337E+03    1.72327383E-03 
   4.63225624E+02    8.92557153E-03 
   1.31200196E+02    3.57279845E-02 
   4.28530159E+01    1.10762599E-01 
   1.55841858E+01    2.42956276E-01 
S    2    1.000000
   6.20671385E+00    4.14402634E-01 
   2.57648965E+00    2.37449687E-01 
S    1    1.000000
   5.76963394E-01    1.00000000E+00 
S    1    1.000000
   2.29728314E-01    1.00000000E+00 
S    1    1.000000
   9.51644400E-02    1.00000000E+00 
S    1    1.000000
   4.84754014E-02    1.00000000E+00 
P    4    1.000000
   3.46972322E+01    5.33336578E-03 
   7.95826228E+00    3.58641091E-02 
   2.37808269E+00    1.42158733E-01 
   8.14332082E-01    3.42704718E-01 
P    1    1.000000
   2.88875473E-01    4.64458224E-01 
P    1    1.000000
   1.00568237E-01    2.49557899E-01 
D    1    1.000000
   1.09700000E+00    1.00000000E+00 
D    1    1.000000
   3.18000000E-01    1.00000000E+00 
F    1    1.000000
   7.61000000E-01    1.00000000E+00 
****
C    0
S    6    1.000000
   1.35753497E+04    2.22458144E-04 
   2.03523337E+03    1.72327383E-03 
   4.63225624E+02    8.92557153E-03 
   1.31200196E+02    3.57279845E-02 
   4.28530159E+01    1.10762599E-01 
   1.55841858E+01    2.42956276E-01 
S    2    1.000000
   6.20671385E+00    4.14402634E-01 
   2.57648965E+00    2.37449687E-01 
S    1    1.000000
   5.76963394E-01    1.00000000E+00 
S    1    1.000000
   2.29728314E-01    1.00000000E+00 
S    1    1.000000
   9.51644400E-02    1.00000000E+00 
S    1    1.000000
   4.84754014E-02    1.00000000E+00 
P    4    1.000000
   3.46972322E+01    5.33336578E-03 
   7.95826228E+00    3.58641091E-02 
   2.37808269E+00    1.42158733E-01 
   8.14332082E-01    3.42704718E-01 
P    1    1.000000
   2.88875473E-01    4.64458224E-01 
P    1    1.000000
   1.00568237E-01    2.49557899E-01 
D    1    1.000000
   1.09700000E+00    1.00000000E+00 
D    1    1.000000
   3.18000000E-01    1.00000000E+00 
F    1    1.000000
   7.61000000E-01    1.00000000E+00 
****
C    0
S    6    1.000000
   1.35753497E+04    2.22458144E-04 
   2.03523337E+03    1.72327383E-03 
   4.63225624E+02    8.92557153E-03 
   1.31200196E+02    3.57279845E-02 
   4.28530159E+01    1.10762599E-01 
   1.55841858E+01    2.42956276E-01 
S    2    1.000000
   6.20671385E+00    4.14402634E-01 
   2.57648965E+00    2.37449687E-01 
S    1    1.000000
   5.76963394E-01    1.00000000E+00 
S    1    1.000000
   2.29728314E-01    1.00000000E+00 
S    1    1.000000
   9.51644400E-02    1.00000000E+00 
S    1    1.000000
   4.84754014E-02    1.00000000E+00 
P    4    1.000000
   3.46972322E+01    5.33336578E-03 
   7.95826228E+00    3.58641091E-02 
   2.37808269E+00    1.42158733E-01 
   8.14332082E-01    3.42704718E-01 
P    1    1.000000
   2.88875473E-01    4.64458224E-01 
P    1    1.000000
   1.00568237E-01    2.49557899E-01 
D    1    1.000000
   1.09700000E+00    1.00000000E+00 
D    1    1.000000
   3.18000000E-01    1.00000000E+00 
F    1    1.000000
   7.61000000E-01    1.00000000E+00 
****
C    0
S    6    1.000000
   1.35753497E+04    2.22458144E-04 
   2.03523337E+03    1.72327383E-03 
   4.63225624E+02    8.92557153E-03 
   1.31200196E+02    3.57279845E-02 
   4.28530159E+01    1.10762599E-01 
   1.55841858E+01    2.42956276E-01 
S    2    1.000000
   6.20671385E+00    4.14402634E-01 
   2.57648965E+00    2.37449687E-01 
S    1    1.000000
   5.76963394E-01    1.00000000E+00 
S    1    1.000000
   2.29728314E-01    1.00000000E+00 
S    1    1.000000
   9.51644400E-02    1.00000000E+00 
S    1    1.000000
   4.84754014E-02    1.00000000E+00 
P    4    1.000000
   3.46972322E+01    5.33336578E-03 
   7.95826228E+00    3.58641091E-02 
   2.37808269E+00    1.42158733E-01 
   8.14332082E-01    3.42704718E-01 
P    1    1.000000
   2.88875473E-01    4.64458224E-01 
P    1    1.000000
   1.00568237E-01    2.49557899E-01 
D    1    1.000000
   1.09700000E+00    1.00000000E+00 
D    1    1.000000
   3.18000000E-01    1.00000000E+00 
F    1    1.000000
   7.61000000E-01    1.00000000E+00 
****
C    0
S    6    1.000000
   1.35753497E+04    2.22458144E-04 
   2.03523337E+03    1.72327383E-03 
   4.63225624E+02    8.92557153E-03 
   1.31200196E+02    3.57279845E-02 
   4.28530159E+01    1.10762599E-01 
   1.55841858E+01    2.42956276E-01 
S    2    1.000000
   6.20671385E+00    4.14402634E-01 
   2.57648965E+00    2.37449687E-01 
S    1    1.000000
   5.76963394E-01    1.00000000E+00 
S    1    1.000000
   2.29728314E-01    1.00000000E+00 
S    1    1.000000
   9.51644400E-02    1.00000000E+00 
S    1    1.000000
   4.84754014E-02    1.00000000E+00 
P    4    1.000000
   3.46972322E+01    5.33336578E-03 
   7.95826228E+00    3.58641091E-02 
   2.37808269E+00    1.42158733E-01 
   8.14332082E-01    3.42704718E-01 
P    1    1.000000
   2.88875473E-01    4.64458224E-01 
P    1    1.000000
   1.00568237E-01    2.49557899E-01 
D    1    1.000000
   1.09700000E+00    1.00000000E+00 
D    1    1.000000
   3.18000000E-01    1.00000000E+00 
F    1    1.000000
   7.61000000E-01    1.00000000E+00 
****
C    0
S    6    1.000000
   1.35753497E+04    2.22458144E-04 
   2.03523337E+03    1.72327383E-03 
   4.63225624E+02    8.92557153E-03 
   1.31200196E+02    3.57279845E-02 
   4.28530159E+01    1.10762599E-01 
   1.55841858E+01    2.42956276E-01 
S    2    1.000000
   6.20671385E+00    4.14402634E-01 
   2.57648965E+00    2.37449687E-01 
S    1    1.000000
   5.76963394E-01    1.00000000E+00 
S    1    1.000000
   2.29728314E-01    1.00000000E+00 
S    1    1.000000
   9.51644400E-02    1.00000000E+00 
S    1    1.000000
   4.84754014E-02    1.00000000E+00 
P    4    1.000000
   3.46972322E+01    5.33336578E-03 
   7.95826228E+00    3.58641091E-02 
   2.37808269E+00    1.42158733E-01 
   8.14332082E-01    3.42704718E-01 
P    1    1.000000
   2.88875473E-01    4.64458224E-01 
P    1    1.000000
   1.00568237E-01    2.49557899E-01 
D    1    1.000000
   1.09700000E+00    1.00000000E+00 
D    1    1.000000
   3.18000000E-01    1.00000000E+00 
F    1    1.000000
   7.61000000E-01    1.00000000E+00 
****
C    0
S    6    1.000000
   1.35753497E+04    2.22458144E-04 
   2.03523337E+03    1.72327383E-03 
   4.63225624E+02    8.92557153E-03 
   1.31200196E+02    3.57279845E-02 
   4.28530159E+01    1.10762599E-01 
   1.55841858E+01    2.42956276E-01 
S    2    1.000000
   6.20671385E+00    4.14402634E-01 
   2.57648965E+00    2.37449687E-01 
S    1    1.000000
   5.76963394E-01    1.00000000E+00 
S    1    1.000000
   2.29728314E-01    1.00000000E+00 
S    1    1.000000
   9.51644400E-02    1.00000000E+00 
S    1    1.000000
   4.84754014E-02    1.00000000E+00 
P    4    1.000000
   3.46972322E+01    5.33336578E-03 
   7.95826228E+00    3.58641091E-02 
   2.37808269E+00    1.42158733E-01 
   8.14332082E-01    3.42704718E-01 
P    1    1.000000
   2.88875473E-01    4.64458224E-01 
P    1    1.000000
   1.00568237E-01    2.49557899E-01 
D    1    1.000000
   1.09700000E+00    1.00000000E+00 
D    1    1.000000
   3.18000000E-01    1.00000000E+00 
F    1    1.000000
   7.61000000E-01    1.00000000E+00 
****
C    0
S    6    1.000000
   1.35753497E+04    2.22458144E-04 
   2.03523337E+03    1.72327383E-03 
   4.63225624E+02    8.92557153E-03 
   1.31200196E+02    3.57279845E-02 
   4.28530159E+01    1.10762599E-01 
   1.55841858E+01    2.42956276E-01 
S    2    1.000000
   6.20671385E+00    4.14402634E-01 
   2.57648965E+00    2.37449687E-01 
S    1    1.000000
   5.76963394E-01    1.00000000E+00 
S    1    1.000000
   2.29728314E-01    1.00000000E+00 
S    1    1.000000
   9.51644400E-02    1.00000000E+00 
S    1    1.000000
   4.84754014E-02    1.00000000E+00 
P    4    1.000000
   3.46972322E+01    5.33336578E-03 
   7.95826228E+00    3.58641091E-02 
   2.37808269E+00    1.42158733E-01 
   8.14332082E-01    3.42704718E-01 
P    1    1.000000
   2.88875473E-01    4.64458224E-01 
P    1    1.000000
   1.00568237E-01    2.49557899E-01 
D    1    1.000000
   1.09700000E+00    1.00000000E+00 
D    1    1.000000
   3.18000000E-01    1.00000000E+00 
F    1    1.000000
   7.61000000E-01    1.00000000E+00 
****
O    0
S    6    1.000000
   2.70323826E+04    2.17263025E-04 
   4.05238714E+03    1.68386622E-03 
   9.22327227E+02    8.73956163E-03 
   2.61240710E+02    3.52399688E-02 
   8.53546414E+01    1.11535191E-01 
   3.10350352E+01    2.55889540E-01 
S    2    1.000000
   1.22608607E+01    3.97687309E-01 
   4.99870760E+00    2.46278494E-01 
S    1    1.000000
   1.17031082E+00    1.00000000E+00 
S    1    1.000000
   4.64747410E-01    1.00000000E+00 
S    1    1.000000
   1.85045364E-01    1.00000000E+00 
S    1    1.000000
   7.02880263E-02    1.00000000E+00 
P    4    1.000000
   6.32749548E+01    6.06851034E-03 
   1.46270494E+01    4.19125758E-02 
   4.45012235E+00    1.61538411E-01 
   1.52757996E+00    3.57069513E-01 
P    1    1.000000
   5.29351179E-01    4.47942075E-01 
P    1    1.000000
   1.74784213E-01    2.44460697E-01 
P    1    1.000000
   5.11127457E-02    1.00000000E+00 
D    1    1.000000
   2.31400000E+00    1.00000000E+00 
D    1    1.000000
   6.45000000E-01    1.00000000E+00 
F    1    1.000000
   1.42800000E+00    1.00000000E+00 
****
C    0
S    6    1.000000
   1.35753497E+04    2.22458144E-04 
   2.03523337E+03    1.72327383E-03 
   4.63225624E+02    8.92557153E-03 
   1.31200196E+02    3.57279845E-02 
   4.28530159E+01    1.10762599E-01 
   1.55841858E+01    2.42956276E-01 
S    2    1.000000
   6.20671385E+00    4.14402634E-01 
   2.57648965E+00    2.37449687E-01 
S    1    1.000000
   5.76963394E-01    1.00000000E+00 
S    1    1.000000
   2.29728314E-01    1.00000000E+00 
S    1    1.000000
   9.51644400E-02    1.00000000E+00 
S    1    1.000000
   4.84754014E-02    1.00000000E+00 
P    4    1.000000
   3.46972322E+01    5.33336578E-03 
   7.95826228E+00    3.58641091E-02 
   2.37808269E+00    1.42158733E-01 
   8.14332082E-01    3.42704718E-01 
P    1    1.000000
   2.88875473E-01    4.64458224E-01 
P    1    1.000000
   1.00568237E-01    2.49557899E-01 
D    1    1.000000
   1.09700000E+00    1.00000000E+00 
D    1    1.000000
   3.18000000E-01    1.00000000E+00 
F    1    1.000000
   7.61000000E-01    1.00000000E+00 
****
C    0
S    6    1.000000
   1.35753497E+04    2.22458144E-04 
   2.03523337E+03    1.72327383E-03 
   4.63225624E+02    8.92557153E-03 
   1.31200196E+02    3.57279845E-02 
   4.28530159E+01    1.10762599E-01 
   1.55841858E+01    2.42956276E-01 
S    2    1.000000
   6.20671385E+00    4.14402634E-01 
   2.57648965E+00    2.37449687E-01 
S    1    1.000000
   5.76963394E-01    1.00000000E+00 
S    1    1.000000
   2.29728314E-01    1.00000000E+00 
S    1    1.000000
   9.51644400E-02    1.00000000E+00 
S    1    1.000000
   4.84754014E-02    1.00000000E+00 
P    4    1.000000
   3.46972322E+01    5.33336578E-03 
   7.95826228E+00    3.58641091E-02 
   2.37808269E+00    1.42158733E-01 
   8.14332082E-01    3.42704718E-01 
P    1    1.000000
   2.88875473E-01    4.64458224E-01 
P    1    1.000000
   1.00568237E-01    2.49557899E-01 
D    1    1.000000
   1.09700000E+00    1.00000000E+00 
D    1    1.000000
   3.18000000E-01    1.00000000E+00 
F    1    1.000000
   7.61000000E-01    1.00000000E+00 
****
C    0
S    6    1.000000
   1.35753497E+04    2.22458144E-04 
   2.03523337E+03    1.72327383E-03 
   4.63225624E+02    8.92557153E-03 
   1.31200196E+02    3.57279845E-02 
   4.28530159E+01    1.10762599E-01 
   1.55841858E+01    2.42956276E-01 
S    2    1.000000
   6.20671385E+00    4.14402634E-01 
   2.57648965E+00    2.37449687E-01 
S    1    1.000000
   5.76963394E-01    1.00000000E+00 
S    1    1.000000
   2.29728314E-01    1.00000000E+00 
S    1    1.000000
   9.51644400E-02    1.00000000E+00 
S    1    1.000000
   4.84754014E-02    1.00000000E+00 
P    4    1.000000
   3.46972322E+01    5.33336578E-03 
   7.95826228E+00    3.58641091E-02 
   2.37808269E+00    1.42158733E-01 
   8.14332082E-01    3.42704718E-01 
P    1    1.000000
   2.88875473E-01    4.64458224E-01 
P    1    1.000000
   1.00568237E-01    2.49557899E-01 
D    1    1.000000
   1.09700000E+00    1.00000000E+00 
D    1    1.000000
   3.18000000E-01    1.00000000E+00 
F    1    1.000000
   7.61000000E-01    1.00000000E+00 
****
C    0
S    6    1.000000
   1.35753497E+04    2.22458144E-04 
   2.03523337E+03    1.72327383E-03 
   4.63225624E+02    8.92557153E-03 
   1.31200196E+02    3.57279845E-02 
   4.28530159E+01    1.10762599E-01 
   1.55841858E+01    2.42956276E-01 
S    2    1.000000
   6.20671385E+00    4.14402634E-01 
   2.57648965E+00    2.37449687E-01 
S    1    1.000000
   5.76963394E-01    1.00000000E+00 
S    1    1.000000
   2.29728314E-01    1.00000000E+00 
S    1    1.000000
   9.51644400E-02    1.00000000E+00 
S    1    1.000000
   4.84754014E-02    1.00000000E+00 
P    4    1.000000
   3.46972322E+01    5.33336578E-03 
   7.95826228E+00    3.58641091E-02 
   2.37808269E+00    1.42158733E-01 
   8.14332082E-01    3.42704718E-01 
P    1    1.000000
   2.88875473E-01    4.64458224E-01 
P    1    1.000000
   1.00568237E-01    2.49557899E-01 
D    1    1.000000
   1.09700000E+00    1.00000000E+00 
D    1    1.000000
   3.18000000E-01    1.00000000E+00 
F    1    1.000000
   7.61000000E-01    1.00000000E+00 
****
C    0
S    6    1.000000
   1.35753497E+04    2.22458144E-04 
   2.03523337E+03    1.72327383E-03 
   4.63225624E+02    8.92557153E-03 
   1.31200196E+02    3.57279845E-02 
   4.28530159E+01    1.10762599E-01 
   1.55841858E+01    2.42956276E-01 
S    2    1.000000
   6.20671385E+00    4.14402634E-01 
   2.57648965E+00    2.37449687E-01 
S    1    1.000000
   5.76963394E-01    1.00000000E+00 
S    1    1.000000
   2.29728314E-01    1.00000000E+00 
S    1    1.000000
   9.51644400E-02    1.00000000E+00 
S    1    1.000000
   4.84754014E-02    1.00000000E+00 
P    4    1.000000
   3.46972322E+01    5.33336578E-03 
   7.95826228E+00    3.58641091E-02 
   2.37808269E+00    1.42158733E-01 
   8.14332082E-01    3.42704718E-01 
P    1    1.000000
   2.88875473E-01    4.64458224E-01 
P    1    1.000000
   1.00568237E-01    2.49557899E-01 
D    1    1.000000
   1.09700000E+00    1.00000000E+00 
D    1    1.000000
   3.18000000E-01    1.00000000E+00 
F    1    1.000000
   7.61000000E-01    1.00000000E+00 
****
C    0
S    6    1.000000
   1.35753497E+04    2.22458144E-04 
   2.03523337E+03    1.72327383E-03 
   4.63225624E+02    8.92557153E-03 
   1.31200196E+02    3.57279845E-02 
   4.28530159E+01    1.10762599E-01 
   1.55841858E+01    2.42956276E-01 
S    2    1.000000
   6.20671385E+00    4.14402634E-01 
   2.57648965E+00    2.37449687E-01 
S    1    1.000000
   5.76963394E-01    1.00000000E+00 
S    1    1.000000
   2.29728314E-01    1.00000000E+00 
S    1    1.000000
   9.51644400E-02    1.00000000E+00 
S    1    1.000000
   4.84754014E-02    1.00000000E+00 
P    4    1.000000
   3.46972322E+01    5.33336578E-03 
   7.95826228E+00    3.58641091E-02 
   2.37808269E+00    1.42158733E-01 
   8.14332082E-01    3.42704718E-01 
P    1    1.000000
   2.88875473E-01    4.64458224E-01 
P    1    1.000000
   1.00568237E-01    2.49557899E-01 
D    1    1.000000
   1.09700000E+00    1.00000000E+00 
D    1    1.000000
   3.18000000E-01    1.00000000E+00 
F    1    1.000000
   7.61000000E-01    1.00000000E+00 
****
O    0
S    6    1.000000
   2.70323826E+04    2.17263025E-04 
   4.05238714E+03    1.68386622E-03 
   9.22327227E+02    8.73956163E-03 
   2.61240710E+02    3.52399688E-02 
   8.53546414E+01    1.11535191E-01 
   3.10350352E+01    2.55889540E-01 
S    2    1.000000
   1.22608607E+01    3.97687309E-01 
   4.99870760E+00    2.46278494E-01 
S    1    1.000000
   1.17031082E+00    1.00000000E+00 
S    1    1.000000
   4.64747410E-01    1.00000000E+00 
S    1    1.000000
   1.85045364E-01    1.00000000E+00 
S    1    1.000000
   7.02880263E-02    1.00000000E+00 
P    4    1.000000
   6.32749548E+01    6.06851034E-03 
   1.46270494E+01    4.19125758E-02 
   4.45012235E+00    1.61538411E-01 
   1.52757996E+00    3.57069513E-01 
P    1    1.000000
   5.29351179E-01    4.47942075E-01 
P    1    1.000000
   1.74784213E-01    2.44460697E-01 
P    1    1.000000
   5.11127457E-02    1.00000000E+00 
D    1    1.000000
   2.31400000E+00    1.00000000E+00 
D    1    1.000000
   6.45000000E-01    1.00000000E+00 
F    1    1.000000
   1.42800000E+00    1.00000000E+00 
****
H    0
S    3    1.000000
   3.40613410E+01    6.02519780E-03 
   5.12357460E+00    4.50210940E-02 
   1.16466260E+00    2.01897260E-01 
S    1    1.000000
   3.27230410E-01    1.00000000E+00 
S    1    1.000000
   1.03072410E-01    1.00000000E+00 
P    1    1.000000
   8.00000000E-01    1.00000000E+00 
****
O    0
S    6    1.000000
   2.70323826E+04    2.17263025E-04 
   4.05238714E+03    1.68386622E-03 
   9.22327227E+02    8.73956163E-03 
   2.61240710E+02    3.52399688E-02 
   8.53546414E+01    1.11535191E-01 
   3.10350352E+01    2.55889540E-01 
S    2    1.000000
   1.22608607E+01    3.97687309E-01 
   4.99870760E+00    2.46278494E-01 
S    1    1.000000
   1.17031082E+00    1.00000000E+00 
S    1    1.000000
   4.64747410E-01    1.00000000E+00 
S    1    1.000000
   1.85045364E-01    1.00000000E+00 
S    1    1.000000
   7.02880263E-02    1.00000000E+00 
P    4    1.000000
   6.32749548E+01    6.06851034E-03 
   1.46270494E+01    4.19125758E-02 
   4.45012235E+00    1.61538411E-01 
   1.52757996E+00    3.57069513E-01 
P    1    1.000000
   5.29351179E-01    4.47942075E-01 
P    1    1.000000
   1.74784213E-01    2.44460697E-01 
P    1    1.000000
   5.11127457E-02    1.00000000E+00 
D    1    1.000000
   2.31400000E+00    1.00000000E+00 
D    1    1.000000
   6.45000000E-01    1.00000000E+00 
F    1    1.000000
   1.42800000E+00    1.00000000E+00 
****
H    0
S    3    1.000000
   3.40613410E+01    6.02519780E-03 
   5.12357460E+00    4.50210940E-02 
   1.16466260E+00    2.01897260E-01 
S    1    1.000000
   3.27230410E-01    1.00000000E+00 
S    1    1.000000
   1.03072410E-01    1.00000000E+00 
P    1    1.000000
   8.00000000E-01    1.00000000E+00 
****
H    0
S    3    1.000000
   3.40613410E+01    6.02519780E-03 
   5.12357460E+00    4.50210940E-02 
   1.16466260E+00    2.01897260E-01 
S    1    1.000000
   3.27230410E-01    1.00000000E+00 
S    1    1.000000
   1.03072410E-01    1.00000000E+00 
P    1    1.000000
   8.00000000E-01    1.00000000E+00 
****
O    0
S    6    1.000000
   2.70323826E+04    2.17263025E-04 
   4.05238714E+03    1.68386622E-03 
   9.22327227E+02    8.73956163E-03 
   2.61240710E+02    3.52399688E-02 
   8.53546414E+01    1.11535191E-01 
   3.10350352E+01    2.55889540E-01 
S    2    1.000000
   1.22608607E+01    3.97687309E-01 
   4.99870760E+00    2.46278494E-01 
S    1    1.000000
   1.17031082E+00    1.00000000E+00 
S    1    1.000000
   4.64747410E-01    1.00000000E+00 
S    1    1.000000
   1.85045364E-01    1.00000000E+00 
S    1    1.000000
   7.02880263E-02    1.00000000E+00 
P    4    1.000000
   6.32749548E+01    6.06851034E-03 
   1.46270494E+01    4.19125758E-02 
   4.45012235E+00    1.61538411E-01 
   1.52757996E+00    3.57069513E-01 
P    1    1.000000
   5.29351179E-01    4.47942075E-01 
P    1    1.000000
   1.74784213E-01    2.44460697E-01 
P    1    1.000000
   5.11127457E-02    1.00000000E+00 
D    1    1.000000
   2.31400000E+00    1.00000000E+00 
D    1    1.000000
   6.45000000E-01    1.00000000E+00 
F    1    1.000000
   1.42800000E+00    1.00000000E+00 
****
H    0
S    3    1.000000
   3.40613410E+01    6.02519780E-03 
   5.12357460E+00    4.50210940E-02 
   1.16466260E+00    2.01897260E-01 
S    1    1.000000
   3.27230410E-01    1.00000000E+00 
S    1    1.000000
   1.03072410E-01    1.00000000E+00 
P    1    1.000000
   8.00000000E-01    1.00000000E+00 
****
H    0
S    3    1.000000
   3.40613410E+01    6.02519780E-03 
   5.12357460E+00    4.50210940E-02 
   1.16466260E+00    2.01897260E-01 
S    1    1.000000
   3.27230410E-01    1.00000000E+00 
S    1    1.000000
   1.03072410E-01    1.00000000E+00 
P    1    1.000000
   8.00000000E-01    1.00000000E+00 
****
O    0
S    6    1.000000
   2.70323826E+04    2.17263025E-04 
   4.05238714E+03    1.68386622E-03 
   9.22327227E+02    8.73956163E-03 
   2.61240710E+02    3.52399688E-02 
   8.53546414E+01    1.11535191E-01 
   3.10350352E+01    2.55889540E-01 
S    2    1.000000
   1.22608607E+01    3.97687309E-01 
   4.99870760E+00    2.46278494E-01 
S    1    1.000000
   1.17031082E+00    1.00000000E+00 
S    1    1.000000
   4.64747410E-01    1.00000000E+00 
S    1    1.000000
   1.85045364E-01    1.00000000E+00 
S    1    1.000000
   7.02880263E-02    1.00000000E+00 
P    4    1.000000
   6.32749548E+01    6.06851034E-03 
   1.46270494E+01    4.19125758E-02 
   4.45012235E+00    1.61538411E-01 
   1.52757996E+00    3.57069513E-01 
P    1    1.000000
   5.29351179E-01    4.47942075E-01 
P    1    1.000000
   1.74784213E-01    2.44460697E-01 
P    1    1.000000
   5.11127457E-02    1.00000000E+00 
D    1    1.000000
   2.31400000E+00    1.00000000E+00 
D    1    1.000000
   6.45000000E-01    1.00000000E+00 
F    1    1.000000
   1.42800000E+00    1.00000000E+00 
****
H    0
S    3    1.000000
   3.40613410E+01    6.02519780E-03 
   5.12357460E+00    4.50210940E-02 
   1.16466260E+00    2.01897260E-01 
S    1    1.000000
   3.27230410E-01    1.00000000E+00 
S    1    1.000000
   1.03072410E-01    1.00000000E+00 
P    1    1.000000
   8.00000000E-01    1.00000000E+00 
****
H    0
S    3    1.000000
   3.40613410E+01    6.02519780E-03 
   5.12357460E+00    4.50210940E-02 
   1.16466260E+00    2.01897260E-01 
S    1    1.000000
   3.27230410E-01    1.00000000E+00 
S    1    1.000000
   1.03072410E-01    1.00000000E+00 
P    1    1.000000
   8.00000000E-01    1.00000000E+00 
****
H    0
S    3    1.000000
   3.40613410E+01    6.02519780E-03 
   5.12357460E+00    4.50210940E-02 
   1.16466260E+00    2.01897260E-01 
S    1    1.000000
   3.27230410E-01    1.00000000E+00 
S    1    1.000000
   1.03072410E-01    1.00000000E+00 
P    1    1.000000
   8.00000000E-01    1.00000000E+00 
****
H    0
S    3    1.000000
   3.40613410E+01    6.02519780E-03 
   5.12357460E+00    4.50210940E-02 
   1.16466260E+00    2.01897260E-01 
S    1    1.000000
   3.27230410E-01    1.00000000E+00 
S    1    1.000000
   1.03072410E-01    1.00000000E+00 
P    1    1.000000
   8.00000000E-01    1.00000000E+00 
****
H    0
S    3    1.000000
   3.40613410E+01    6.02519780E-03 
   5.12357460E+00    4.50210940E-02 
   1.16466260E+00    2.01897260E-01 
S    1    1.000000
   3.27230410E-01    1.00000000E+00 
S    1    1.000000
   1.03072410E-01    1.00000000E+00 
P    1    1.000000
   8.00000000E-01    1.00000000E+00 
****
$end
-----------------------------------------------------------------------
 There are 285 shells and 715 basis functions

 Total QAlloc Memory Limit  64000 MB
 Mega-Array Size      1956 MB
 MEM_STATIC part      2000 MB

 User-specified dielectric constants (eps_0 = 78.39, eps_inf = 1.78)
 Using C-PCM dielectric factor f(eps) = (eps-1)/eps = 0.987243
 Static dielectric constant eps = 78.39
 Discretize the solute cavity surface with Lebedev spheres
	Using 110 Lebedev grid points for each H atom
	Using 194 Lebedev grid points for other atoms
	Atomic van der Waals radii (Bondi set) will be scaled by 1.20
 Using smooth SwiG surface discretization
 Remove points where switching function is < 1.0e-08
 Keep 2026 surface tesserae and discard 2954 interior tesserae
 Molecular Surface Area = 287.641 Angst**2

 A cutoff of  1.0D-12 yielded  29721 shell pairs
 There are    177887 function pairs (    226704 Cartesian)
 Smallest overlap matrix eigenvalue = 4.04E-06

 Scale SEOQF with 1.000000e-02/1.000000e-02/1.000000e-01

 Standard Electronic Orientation quadrupole field applied
 Nucleus-field energy     =    -0.0000000201 hartrees
 Guess from superposition of atomic densities
 Warning:  Energy on first SCF cycle will be non-variational
 SAD guess density has 140.000000 electrons

 -----------------------------------------------------------------------
  General SCF calculation program by
  Eric Jon Sundstrom, Paul Horn, Yuezhi Mao, Dmitri Zuev, Alec White,
  David Stuck, Shaama M.S., Shane Yost, Joonho Lee, David Small,
  Daniel Levine, Susi Lehtola, Hugh Burton, Evgeny Epifanovsky,
  Bang C. Huynh
 -----------------------------------------------------------------------
 Exchange:     0.1900 Hartree-Fock + 0.3500 B88 + 0.4600 muB88 + LR-HF
 Correlation:  0.1900 VWN5 + 0.8100 LYP
 Using SG-1 standard quadrature grid
 using 16 threads for integral computing
 -------------------------------------------------------
 OpenMP Integral computing Module                
 Release: version 1.0, May 2013, Q-Chem Inc. Pittsburgh 
 -------------------------------------------------------
 C-PCM solvent model [f = (eps-1)/eps], solve by matrix inversion
 DFT Correlation          Energy =  -5.68463681355550
 DFT Exchange             Energy = -86.74747961237358
 HF Exchange              Energy = -35.79864063626842
 One-Electron             Energy = -4122.44132942160104
 SCRF wf-dependent energy Energy =   0.00000000000000
 Total Coulomb            Energy = 1863.05992771458591
 Nuclear repulsion Energy = 1427.89738831106433
 A restricted SCF calculation will be
 performed using DIIS
 SCF converges when DIIS error is below 1.0e-08
 DFT Correlation          Energy =  -5.68463681355550
 DFT Exchange             Energy = -86.74747961237358
 HF Exchange              Energy = -35.79864063626842
 One-Electron             Energy = -4122.44132942160104
 SCRF wf-dependent energy Energy =   0.00000000000000
 Total Coulomb            Energy = 1863.05992771458591
 ---------------------------------------
  Cycle       Energy         DIIS error
 ---------------------------------------
 DFT Correlation          Energy =  -5.76511775461090
 DFT Exchange             Energy = -88.63308381585419
 HF Exchange              Energy = -34.48491399064898
 One-Electron             Energy = -4144.38467126284831
 SCRF wf-dependent energy Energy =   0.45149520634914
 Total Coulomb            Energy = 1891.54579769230622
 Nuclear repulsion Energy = 1427.89738831106433
    1    -959.7147704581      2.17e-02  
 DFT Correlation          Energy =  -5.70980414732005
 DFT Exchange             Energy = -87.06981401247667
 HF Exchange              Energy = -34.04288085637931
 One-Electron             Energy = -4130.80180967777505
 SCRF wf-dependent energy Energy =   1.16367904983963
 Total Coulomb            Energy = 1875.33514677698008
 Nuclear repulsion Energy = 1427.89738831106433
    2    -953.3731056142      2.37e-03  
 DFT Correlation          Energy =  -5.73342263305287
 DFT Exchange             Energy = -87.79777454492545
 HF Exchange              Energy = -34.26729402272302
 One-Electron             Energy = -4134.47774460554956
 SCRF wf-dependent energy Energy =   0.13160471100105
 Total Coulomb            Energy = 1880.59221118952701
 Nuclear repulsion Energy = 1427.89738831106433
    3    -953.2280945561      3.08e-03  
 DFT Correlation          Energy =  -5.73623370407424
 DFT Exchange             Energy = -87.84851793168444
 HF Exchange              Energy = -34.27937622498867
 One-Electron             Energy = -4136.43198341548850
 SCRF wf-dependent energy Energy =   0.47980719133648
 Total Coulomb            Energy = 1882.25090917377452
 Nuclear repulsion Energy = 1427.89738831106433
    4    -953.6550315947      5.35e-04  
 DFT Correlation          Energy =  -5.73575282549811
 DFT Exchange             Energy = -87.83477574492667
 HF Exchange              Energy = -34.27635424956508
 One-Electron             Energy = -4136.29051344369327
 SCRF wf-dependent energy Energy =   0.46955702692958
 Total Coulomb            Energy = 1882.10132755943778
 Nuclear repulsion Energy = 1427.89738831106433
    5    -953.6680066001      1.61e-04  
 DFT Correlation          Energy =  -5.73555700043986
 DFT Exchange             Energy = -87.83408279574390
 HF Exchange              Energy = -34.27661751594270
 One-Electron             Energy = -4136.12389799193807
 SCRF wf-dependent energy Energy =   0.43857361207256
 Total Coulomb            Energy = 1881.96491631907338
 Nuclear repulsion Energy = 1427.89738831106433
    6    -953.6691233663      5.61e-05  
 DFT Correlation          Energy =  -5.73553252948001
 DFT Exchange             Energy = -87.83256630671380
 HF Exchange              Energy = -34.27632187784487
 One-Electron             Energy = -4136.11975189961777
 SCRF wf-dependent energy Energy =   0.43933538672331
 Total Coulomb            Energy = 1881.95815826103581
 Nuclear repulsion Energy = 1427.89738831106433
    7    -953.6692770619      1.52e-05  
 DFT Correlation          Energy =  -5.73557255724562
 DFT Exchange             Energy = -87.83363495965813
 HF Exchange              Energy = -34.27663159263351
 One-Electron             Energy = -4136.13794624182810
 SCRF wf-dependent energy Energy =   0.44020575837976
 Total Coulomb            Energy = 1881.97689874815364
 Nuclear repulsion Energy = 1427.89738831106433
    8    -953.6692906548      3.88e-06  
 DFT Correlation          Energy =  -5.73556505168223
 DFT Exchange             Energy = -87.83341946798181
 HF Exchange              Energy = -34.27659028340005
 One-Electron             Energy = -4136.13283129651609
 SCRF wf-dependent energy Energy =   0.43935829215752
 Total Coulomb            Energy = 1881.97236644843565
 Nuclear repulsion Energy = 1427.89738831106433
    9    -953.6692925338      1.70e-06  
 DFT Correlation          Energy =  -5.73556425280708
 DFT Exchange             Energy = -87.83341347137386
 HF Exchange              Energy = -34.27659304677394
 One-Electron             Energy = -4136.13116044411436
 SCRF wf-dependent energy Energy =   0.43873744888288
 Total Coulomb            Energy = 1881.97131231493199
 Nuclear repulsion Energy = 1427.89738831106433
   10    -953.6692930479      7.32e-07  
 DFT Correlation          Energy =  -5.73556531061909
 DFT Exchange             Energy = -87.83342774165816
 HF Exchange              Energy = -34.27659589062701
 One-Electron             Energy = -4136.13146039343246
 SCRF wf-dependent energy Energy =   0.43867057496436
 Total Coulomb            Energy = 1881.97169728959489
 Nuclear repulsion Energy = 1427.89738831106433
   11    -953.6692931402      2.84e-07  
 DFT Correlation          Energy =  -5.73556523708239
 DFT Exchange             Energy = -87.83342662332316
 HF Exchange              Energy = -34.27659524670864
 One-Electron             Energy = -4136.13128743248581
 SCRF wf-dependent energy Energy =   0.43861674074424
 Total Coulomb            Energy = 1881.97157632563994
 Nuclear repulsion Energy = 1427.89738831106433
   12    -953.6692931607      9.55e-08  
 DFT Correlation          Energy =  -5.73556524161511
 DFT Exchange             Energy = -87.83342665593321
 HF Exchange              Energy = -34.27659505275717
 One-Electron             Energy = -4136.13125367732937
 SCRF wf-dependent energy Energy =   0.43860350801197
 Total Coulomb            Energy = 1881.97155564612490
 Nuclear repulsion Energy = 1427.89738831106433
   13    -953.6692931622      5.77e-08  
 DFT Correlation          Energy =  -5.73556525046446
 DFT Exchange             Energy = -87.83342679669998
 HF Exchange              Energy = -34.27659498569840
 One-Electron             Energy = -4136.13126600876330
 SCRF wf-dependent energy Energy =   0.43860557479820
 Total Coulomb            Energy = 1881.97156599304117
 Nuclear repulsion Energy = 1427.89738831106433
   14    -953.6692931624      1.32e-08  
   15    -953.6692931627      7.12e-09  Convergence criterion met
 ---------------------------------------
 DFT Correlation          Energy =  -5.73556525046446
 DFT Exchange             Energy = -87.83342679669998
 HF Exchange              Energy = -34.27659498569840
 One-Electron             Energy = -4136.13126600876330
 SCRF wf-dependent energy Energy =   0.43860557479820
 Total Coulomb            Energy = 1881.97156599304117
 Final Alpha MO Eigenvalues
            1           2           3           4           5           6
    1 -19.3045108 -19.2476954 -19.2451620 -19.2421913 -19.1346510 -10.3522300
            7           8           9          10          11          12
    1 -10.3442580 -10.3404633 -10.3381215 -10.3279070 -10.3144979 -10.2809616
           13          14          15          16          17          18
    1 -10.2741947 -10.2716558 -10.2655099 -10.2617410 -10.2612158 -10.2545645
           19          20          21          22          23          24
    1 -10.2544732 -10.2543112  -1.2295760  -1.1627806  -1.1579172  -1.1547028
           25          26          27          28          29          30
    1  -1.0627671  -0.9710413  -0.9535788  -0.9012915  -0.8863573  -0.8467294
           31          32          33          34          35          36
    1  -0.8409978  -0.8186695  -0.7654036  -0.7477679  -0.7123969  -0.7070702
           37          38          39          40          41          42
    1  -0.6968457  -0.6723699  -0.6361764  -0.6284612  -0.6161581  -0.5986732
           43          44          45          46          47          48
    1  -0.5818792  -0.5733798  -0.5641717  -0.5478420  -0.5261004  -0.5215902
           49          50          51          52          53          54
    1  -0.5143637  -0.5045843  -0.5039079  -0.4994535  -0.4954181  -0.4863246
           55          56          57          58          59          60
    1  -0.4841874  -0.4739460  -0.4598817  -0.4510506  -0.4484856  -0.4441822
           61          62          63          64          65          66
    1  -0.4289968  -0.4283972  -0.4134977  -0.4001606  -0.3366164  -0.3281260
           67          68          69          70          71          72
    1  -0.3245546  -0.3046774  -0.2977647  -0.2386909  -0.0695722   0.0177225
           73          74          75          76          77          78
    1   0.0228478   0.0295055   0.0348969   0.0371998   0.0416017   0.0483469
           79          80          81          82          83          84
    1   0.0564551   0.0582103   0.0698090   0.0764684   0.0779669   0.0820437
           85          86          87          88          89          90
    1   0.0883818   0.0955601   0.0994779   0.1007553   0.1035230   0.1113142
           91          92          93          94          95          96
    1   0.1131443   0.1221766   0.1265129   0.1279541   0.1401250   0.1437133
           97          98          99         100         101         102
    1   0.1507307   0.1529872   0.1694799   0.1745902   0.1778834   0.1801514
          103         104         105         106         107         108
    1   0.1878642   0.1952498   0.2008874   0.2090882   0.2098950   0.2133957
          109         110         111         112         113         114
    1   0.2193242   0.2209609   0.2232576   0.2341770   0.2358685   0.2398912
          115         116         117         118         119         120
    1   0.2478663   0.2520560   0.2583879   0.2653844   0.2697623   0.2772776
          121         122         123         124         125         126
    1   0.2850706   0.2855532   0.2883716   0.2917274   0.2989689   0.3057533
          127         128         129         130         131         132
    1   0.3104348   0.3120940   0.3163553   0.3203617   0.3212666   0.3238572
          133         134         135         136         137         138
    1   0.3314123   0.3372455   0.3379129   0.3443082   0.3468104   0.3560533
          139         140         141         142         143         144
    1   0.3613446   0.3639628   0.3704432   0.3761891   0.3825844   0.3849164
          145         146         147         148         149         150
    1   0.3901939   0.3922837   0.3968744   0.3983472   0.4036507   0.4076122
          151         152         153         154         155         156
    1   0.4112482   0.4152304   0.4315840   0.4348281   0.4383555   0.4422140
          157         158         159         160         161         162
    1   0.4457942   0.4500045   0.4538634   0.4618126   0.4700087   0.4739477
          163         164         165         166         167         168
    1   0.4752389   0.4783102   0.4833686   0.4893572   0.4945408   0.4968457
          169         170         171         172         173         174
    1   0.5038692   0.5068125   0.5089404   0.5110437   0.5217190   0.5279995
          175         176         177         178         179         180
    1   0.5372133   0.5414359   0.5477596   0.5510664   0.5531460   0.5622524
          181         182         183         184         185         186
    1   0.5643395   0.5709319   0.5785063   0.5883408   0.5910821   0.5976206
          187         188         189         190         191         192
    1   0.6057238   0.6106558   0.6203284   0.6225603   0.6298679   0.6326492
          193         194         195         196         197         198
    1   0.6359193   0.6438008   0.6498245   0.6523116   0.6587602   0.6620487
          199         200         201         202         203         204
    1   0.6714628   0.6731925   0.6816413   0.6887470   0.6999014   0.7057557
          205         206         207         208         209         210
    1   0.7095030   0.7167963   0.7269280   0.7320173   0.7369100   0.7466332
          211         212         213         214         215         216
    1   0.7476081   0.7544266   0.7585469   0.7693272   0.7743868   0.7835752
          217         218         219         220         221         222
    1   0.7908853   0.7946838   0.7949179   0.7984988   0.8100167   0.8110265
          223         224         225         226         227         228
    1   0.8153316   0.8236815   0.8304576   0.8374839   0.8423080   0.8449967
          229         230         231         232         233         234
    1   0.8513764   0.8646749   0.8735384   0.8810930   0.8839777   0.8926309
          235         236         237         238         239         240
    1   0.9088924   0.9107549   0.9113379   0.9337663   0.9362317   0.9439264
          241         242         243         244         245         246
    1   0.9488220   0.9566662   0.9660655   0.9684022   0.9866181   0.9929994
          247         248         249         250         251         252
    1   1.0180185   1.0279569   1.0449608   1.0506815   1.0640198   1.0705879
          253         254         255         256         257         258
    1   1.0837606   1.0856602   1.1063408   1.1095788   1.1135088   1.1211591
          259         260         261         262         263         264
    1   1.1294337   1.1336157   1.1475716   1.1632628   1.1783274   1.1810662
          265         266         267         268         269         270
    1   1.1828149   1.1859282   1.1892200   1.1969200   1.1995468   1.2193244
          271         272         273         274         275         276
    1   1.2311503   1.2353729   1.2450505   1.2613422   1.2751375   1.2879696
          277         278         279         280         281         282
    1   1.3010200   1.3191621   1.3250440   1.3322806   1.3343156   1.3509683
          283         284         285         286         287         288
    1   1.3553261   1.3627317   1.3684248   1.3779110   1.3881885   1.4037499
          289         290         291         292         293         294
    1   1.4120178   1.4177191   1.4321703   1.4422968   1.4503427   1.4641023
          295         296         297         298         299         300
    1   1.4690280   1.4787922   1.4862736   1.4977521   1.5044640   1.5129230
          301         302         303         304         305         306
    1   1.5275033   1.5348873   1.5450125   1.5604714   1.5643227   1.5742620
          307         308         309         310         311         312
    1   1.5797418   1.5904953   1.5951611   1.5976063   1.6194180   1.6286066
          313         314         315         316         317         318
    1   1.6303154   1.6476863   1.6498800   1.6592927   1.6782216   1.6838784
          319         320         321         322         323         324
    1   1.6949247   1.6990333   1.7076763   1.7144131   1.7207271   1.7246435
          325         326         327         328         329         330
    1   1.7363978   1.7429971   1.7552894   1.7555047   1.7660652   1.7696235
          331         332         333         334         335         336
    1   1.7771851   1.7905852   1.8034941   1.8236249   1.8299256   1.8399195
          337         338         339         340         341         342
    1   1.8588441   1.8733800   1.8785896   1.8849125   1.8957908   1.9031728
          343         344         345         346         347         348
    1   1.9084572   1.9240402   1.9321102   1.9491347   1.9557571   1.9592304
          349         350         351         352         353         354
    1   1.9766813   1.9809725   1.9890345   2.0054743   2.0239101   2.0334593
          355         356         357         358         359         360
    1   2.0383486   2.0556266   2.0601950   2.0682501   2.0751056   2.0857362
          361         362         363         364         365         366
    1   2.0975666   2.1103959   2.1177146   2.1415915   2.1486581   2.1587589
          367         368         369         370         371         372
    1   2.1647149   2.1936765   2.2008797   2.2081218   2.2139051   2.2146168
          373         374         375         376         377         378
    1   2.2192902   2.2252317   2.2283301   2.2397881   2.2493306   2.2597943
          379         380         381         382         383         384
    1   2.2816019   2.2869491   2.3000687   2.3041522   2.3172214   2.3454059
          385         386         387         388         389         390
    1   2.3529876   2.3581085   2.3651184   2.3756283   2.3851414   2.4024428
          391         392         393         394         395         396
    1   2.4042726   2.4123271   2.4299683   2.4470466   2.4500146   2.4635094
          397         398         399         400         401         402
    1   2.4898098   2.5173343   2.5234049   2.5324204   2.5441953   2.5490444
          403         404         405         406         407         408
    1   2.5596849   2.5864305   2.5975385   2.6010764   2.6240518   2.6353916
          409         410         411         412         413         414
    1   2.6378160   2.6495419   2.6714914   2.6741412   2.6827185   2.6945953
          415         416         417         418         419         420
    1   2.6985983   2.7047553   2.7119904   2.7204444   2.7289370   2.7366427
          421         422         423         424         425         426
    1   2.7486450   2.7604058   2.7665295   2.7796244   2.7810801   2.7952389
          427         428         429         430         431         432
    1   2.7968260   2.8050329   2.8073113   2.8116865   2.8137843   2.8188015
          433         434         435         436         437         438
    1   2.8378709   2.8474919   2.8550519   2.8617109   2.8699056   2.8815100
          439         440         441         442         443         444
    1   2.8873402   2.8939760   2.9001170   2.9200595   2.9269676   2.9332166
          445         446         447         448         449         450
    1   2.9409137   2.9525675   2.9580174   2.9602996   2.9720859   2.9808530
          451         452         453         454         455         456
    1   2.9919823   2.9965082   3.0003397   3.0164328   3.0225032   3.0272179
          457         458         459         460         461         462
    1   3.0354244   3.0438671   3.0493323   3.0596979   3.0793638   3.0836173
          463         464         465         466         467         468
    1   3.0941198   3.0983854   3.1055388   3.1128157   3.1196639   3.1246039
          469         470         471         472         473         474
    1   3.1418438   3.1580192   3.1661983   3.1685537   3.1740269   3.1845236
          475         476         477         478         479         480
    1   3.1889720   3.1972833   3.2100060   3.2143031   3.2223916   3.2250772
          481         482         483         484         485         486
    1   3.2327591   3.2377401   3.2450863   3.2550014   3.2605880   3.2685818
          487         488         489         490         491         492
    1   3.2749103   3.2830235   3.2994266   3.3073975   3.3231893   3.3289281
          493         494         495         496         497         498
    1   3.3313110   3.3416128   3.3469376   3.3519850   3.3638246   3.3665719
          499         500         501         502         503         504
    1   3.3794159   3.3828977   3.3979503   3.4018907   3.4080733   3.4147792
          505         506         507         508         509         510
    1   3.4248245   3.4344024   3.4413642   3.4480610   3.4533136   3.4630665
          511         512         513         514         515         516
    1   3.4642208   3.4682776   3.4762271   3.4787617   3.4884696   3.5043696
          517         518         519         520         521         522
    1   3.5060219   3.5261155   3.5308152   3.5331223   3.5440102   3.5452571
          523         524         525         526         527         528
    1   3.5519216   3.5701319   3.5754337   3.5826984   3.5876517   3.5928627
          529         530         531         532         533         534
    1   3.6053454   3.6138364   3.6224285   3.6391582   3.6527130   3.6553510
          535         536         537         538         539         540
    1   3.6715640   3.6763854   3.6922882   3.6965582   3.7087614   3.7440956
          541         542         543         544         545         546
    1   3.7473401   3.7515880   3.7657818   3.7952542   3.8008547   3.8397745
          547         548         549         550         551         552
    1   3.8429259   3.8553661   3.8720573   3.8945593   3.9089530   3.9341006
          553         554         555         556         557         558
    1   3.9417355   3.9552496   3.9713519   3.9714017   4.0183497   4.0248438
          559         560         561         562         563         564
    1   4.0303543   4.0450569   4.0504972   4.0657356   4.0765938   4.0800440
          565         566         567         568         569         570
    1   4.0955877   4.1202896   4.1368793   4.1504764   4.1624517   4.1959446
          571         572         573         574         575         576
    1   4.2126929   4.2250176   4.2348056   4.2435829   4.2496735   4.2587524
          577         578         579         580         581         582
    1   4.2661974   4.2739364   4.2804736   4.2945199   4.3097650   4.3163704
          583         584         585         586         587         588
    1   4.3286478   4.3566866   4.3738358   4.3785086   4.4133930   4.4171504
          589         590         591         592         593         594
    1   4.4361871   4.4572708   4.4760143   4.4959433   4.5167509   4.5226758
          595         596         597         598         599         600
    1   4.5801460   4.5912993   4.6036939   4.6336187   4.6394598   4.6674153
          601         602         603         604         605         606
    1   4.6697263   4.7032433   4.7077932   4.7120860   4.7252922   4.7791541
          607         608         609         610         611         612
    1   4.8005903   4.8123703   4.8255053   4.8769972   4.9216014   4.9356186
          613         614         615         616         617         618
    1   4.9479239   4.9553232   4.9732153   4.9914825   4.9945152   5.0189921
          619         620         621         622         623         624
    1   5.0495913   5.0971179   5.1331259   5.1740128   5.1930633   5.2393589
          625         626         627         628         629         630
    1   5.2725821   5.2927555   5.3081798   5.3126861   5.3145088   5.3201821
          631         632         633         634         635         636
    1   5.3460450   5.3601819   5.3789313   5.3868981   5.4367192   5.4743141
          637         638         639         640         641         642
    1   5.4818117   5.5228135   5.5273027   5.5351758   5.5452817   5.5593839
          643         644         645         646         647         648
    1   5.5805966   5.5971907   5.6087994   5.6527382   5.6777576   5.6985393
          649         650         651         652         653         654
    1   5.8102125   5.8107511   5.8466458   5.8510830   5.8574314   5.9058972
          655         656         657         658         659         660
    1   6.0052547   6.0249582   6.0645723   6.1119347   6.1447804   6.2146759
          661         662         663         664         665         666
    1   6.2699001   6.3930004   6.4002671   6.4471757   6.4572195   6.4651604
          667         668         669         670         671         672
    1   6.4666877   6.4723951   6.4754124   6.5027209   6.5167261   6.5668384
          673         674         675         676         677         678
    1   6.6606885   6.6795489   6.7705539   6.7737312   6.7779079   6.7857264
          679         680         681         682         683         684
    1   6.8885111   6.8913419   6.9260036   6.9279841   6.9491821   7.0130011
          685         686         687         688         689         690
    1   7.0369283   7.0923472   7.1034001   7.1294178   7.2295064   7.2733716
          691         692         693         694         695         696
    1   7.3710436   7.3766766   7.4066165   7.5033194   7.5567066  22.3826718
          697         698         699         700         701         702
    1  22.5448973  22.7504519  22.7983070  22.8171232  22.8484103  22.8658125
          703         704         705         706         707         708
    1  22.9427137  22.9823544  23.0753451  23.1006268  23.2090495  23.2620840
          709         710         711         712         713         714
    1  23.5129301  23.6879133  44.0991914  44.1111608  44.1456150  44.1938290
          715
    1  44.6813842
 SCF time:   CPU 6952.23s  wall 510.00s 
 DFT Correlation          Energy =  -5.73556525046446
 DFT Exchange             Energy = -87.83342679669998
 HF Exchange              Energy = -34.27659498569840
 One-Electron             Energy = -4136.13126600876330
 SCRF wf-dependent energy Energy =   0.43860557479820
 Total Coulomb            Energy = 1881.97156599304117
 Nuclear repulsion Energy = 1427.89738831106433

************** Final PCM Free Energy Summary **************
 G_electrostatic  =      -0.05086912 hartree =     -31.92085358 kcal/mol
 G_cavitation     =       0.00000000 hartree =       0.00000000 kcal/mol
 G_dispersion     =       0.00000000 hartree =       0.00000000 kcal/mol
 G_repulsion      =       0.00000000 hartree =       0.00000000 kcal/mol
 --------------------------------------------------
 Non-electrostatic Free Energy =       0.00000000 hartree =       0.00000000 kcal/mol
 Total                         =      -0.05086912 hartree =     -31.92085358 kcal/mol
 --------------------------------------------------
 SCF Energy (H0 + V/2)                       =    -953.66929316 
 Solute Internal Energy (H0)                 =    -953.61842404 
 Total Free Energy (H0 + V/2 + non-elec)     =    -953.66929316 hartree
                                             = -598436.51658263 kcal/mol
***********************************************************

 SCF   energy =  -953.66929316
 Total energy =  -953.66929316
 MAX_CIS_SUBSPACE fits in available memory
 Direct TDDFT/TDA calculation will be performed
 Exchange:     0.1900 Hartree-Fock + 0.3500 B88 + 0.4600 muB88 + LR-HF
 Correlation:  0.1900 VWN5 + 0.8100 LYP
 Using SG-1 standard quadrature grid
 Triplet excitation energies requested
 Singlet excitation energies requested
 Adding PCM contribution to the XC response (LR-PCM)
 Optical dielectric constant (eps_inf) =  1.78
 CIS energy converged when residual is below 10e- 6
 ---------------------------------------------------
 Iter    Rts Conv    Rts Left    Ttl Dev     Max Dev
 ---------------------------------------------------
   1         0           7      0.001031    0.000168
   2         0           7      0.000367    0.000076
   3         0           7      0.000156    0.000044
   4         0           7      0.000148    0.000056
   5         2           5      0.000170    0.000069
   6         2           5      0.000053    0.000027
   7         4           3      0.000015    0.000007
   8         5           2      0.000006    0.000003
   9         6           1      0.000003    0.000001
  10         7           0      0.000002    0.000001    Roots Converged
 ---------------------------------------------------
 Triplets done: starting singlet calculation
 ---------------------------------------------------
 Iter    Rts Conv    Rts Left    Ttl Dev     Max Dev
 ---------------------------------------------------
  11         0           7      0.002534    0.000534
  12         0           7      0.000670    0.000150
  13         0           7      0.000359    0.000117
  14         0           7      0.000218    0.000070
  15         0           7      0.000150    0.000058
  16         2           5      0.000100    0.000065
  17         3           4      0.000087    0.000072
  18         4           3      0.000053    0.000046
  19         5           2      0.000024    0.000020
  20         6           1      0.000012    0.000009
  21         6           1      0.000008    0.000005
  22         6           1      0.000005    0.000002
  23         6           1      0.000004    0.000001
  24         7           0      0.000003    0.000001    Roots Converged
 ---------------------------------------------------
 
 ---------------------------------------------------
         TDDFT/TDA Excitation Energies              
 ---------------------------------------------------

 Excited state   1: excitation energy (eV) =       1.1125
 Total energy for state   1:                  -953.62840826 au
    Multiplicity: Triplet
    Trans. Mom.:  0.0000 X   0.0000 Y   0.0000 Z
    Strength   :     0.0000000000
    D(   65) --> V(    1) amplitude =  0.0726
    D(   67) --> V(    1) amplitude = -0.1118
    D(   70) --> V(    1) amplitude =  0.9679
    D(   70) --> V(   10) amplitude =  0.0890

 Excited state   2: excitation energy (eV) =       2.5840
 Total energy for state   2:                  -953.57433323 au
    Multiplicity: Singlet
    Trans. Mom.:  2.6705 X   2.2317 Y  -0.4104 Z
    Strength   :     0.7774529451
    D(   70) --> V(    1) amplitude =  0.9781

 Excited state   3: excitation energy (eV) =       3.0271
 Total energy for state   3:                  -953.55804805 au
    Multiplicity: Triplet
    Trans. Mom.:  0.0000 X   0.0000 Y   0.0000 Z
    Strength   :     0.0000000000
    D(   64) --> V(    1) amplitude = -0.0969
    D(   66) --> V(    3) amplitude =  0.0819
    D(   67) --> V(    5) amplitude =  0.1410
    D(   69) --> V(    1) amplitude =  0.8751
    D(   69) --> V(   10) amplitude = -0.0927
    D(   70) --> V(    2) amplitude =  0.2869
    D(   70) --> V(    3) amplitude = -0.1394
    D(   70) --> V(    5) amplitude =  0.1804

 Excited state   4: excitation energy (eV) =       3.1257
 Total energy for state   4:                  -953.55442422 au
    Multiplicity: Triplet
    Trans. Mom.:  0.0000 X   0.0000 Y   0.0000 Z
    Strength   :     0.0000000000
    D(   68) --> V(    1) amplitude =  0.9770
    D(   68) --> V(   10) amplitude =  0.1274

 Excited state   5: excitation energy (eV) =       3.2761
 Total energy for state   5:                  -953.54889779 au
    Multiplicity: Singlet
    Trans. Mom.:  0.0802 X   0.0603 Y  -0.0330 Z
    Strength   :     0.0008950249
    D(   68) --> V(    1) amplitude =  0.9796
    D(   68) --> V(   10) amplitude =  0.1183
    D(   69) --> V(    1) amplitude =  0.1001

 Excited state   6: excitation energy (eV) =       3.5427
 Total energy for state   6:                  -953.53910106 au
    Multiplicity: Triplet
    Trans. Mom.:  0.0000 X   0.0000 Y   0.0000 Z
    Strength   :     0.0000000000
    D(   66) --> V(    1) amplitude =  0.1756
    D(   67) --> V(    1) amplitude = -0.4638
    D(   69) --> V(    1) amplitude = -0.2737
    D(   69) --> V(    5) amplitude = -0.2366
    D(   70) --> V(    1) amplitude = -0.0851
    D(   70) --> V(    2) amplitude =  0.7086
    D(   70) --> V(    3) amplitude = -0.1230
    D(   70) --> V(    5) amplitude = -0.1415
    D(   70) --> V(   10) amplitude =  0.1168
    D(   70) --> V(   28) amplitude = -0.0793

 Excited state   7: excitation energy (eV) =       3.5904
 Total energy for state   7:                  -953.53734933 au
    Multiplicity: Triplet
    Trans. Mom.:  0.0000 X   0.0000 Y   0.0000 Z
    Strength   :     0.0000000000
    D(   65) --> V(    1) amplitude = -0.3460
    D(   65) --> V(    2) amplitude = -0.0870
    D(   66) --> V(    1) amplitude = -0.1442
    D(   67) --> V(    1) amplitude =  0.5714
    D(   67) --> V(    2) amplitude = -0.0976
    D(   69) --> V(    1) amplitude = -0.1438
    D(   69) --> V(    2) amplitude =  0.0997
    D(   69) --> V(    3) amplitude = -0.1070
    D(   69) --> V(    5) amplitude =  0.1927
    D(   70) --> V(    1) amplitude =  0.0938
    D(   70) --> V(    2) amplitude =  0.5010
    D(   70) --> V(    3) amplitude = -0.1490
    D(   70) --> V(    5) amplitude =  0.1051
    D(   70) --> V(   10) amplitude = -0.2684
    D(   70) --> V(   13) amplitude = -0.0883
    D(   70) --> V(   28) amplitude = -0.0718

 Excited state   8: excitation energy (eV) =       3.8434
 Total energy for state   8:                  -953.52805115 au
    Multiplicity: Singlet
    Trans. Mom.: -0.9918 X  -0.7942 Y   0.0969 Z
    Strength   :     0.1528995115
    D(   66) --> V(    1) amplitude = -0.0832
    D(   67) --> V(    1) amplitude =  0.2074
    D(   68) --> V(    1) amplitude = -0.0970
    D(   69) --> V(    1) amplitude =  0.9194
    D(   70) --> V(    2) amplitude =  0.2100
    D(   70) --> V(    5) amplitude = -0.1108

 Excited state   9: excitation energy (eV) =       3.9285
 Total energy for state   9:                  -953.52492364 au
    Multiplicity: Triplet
    Trans. Mom.:  0.0000 X   0.0000 Y   0.0000 Z
    Strength   :     0.0000000000
    D(   61) --> V(    1) amplitude = -0.1121
    D(   62) --> V(    1) amplitude =  0.1062
    D(   64) --> V(    1) amplitude = -0.1746
    D(   65) --> V(    1) amplitude =  0.7440
    D(   65) --> V(    5) amplitude =  0.1378
    D(   66) --> V(    1) amplitude = -0.3498
    D(   67) --> V(    1) amplitude =  0.2431
    D(   69) --> V(    2) amplitude =  0.0900
    D(   69) --> V(    3) amplitude = -0.0897
    D(   69) --> V(    5) amplitude =  0.0846
    D(   69) --> V(   10) amplitude =  0.0880
    D(   70) --> V(    2) amplitude =  0.1562
    D(   70) --> V(    3) amplitude =  0.1074
    D(   70) --> V(    5) amplitude = -0.2288
    D(   70) --> V(   28) amplitude = -0.1101

 Excited state  10: excitation energy (eV) =       4.0259
 Total energy for state  10:                  -953.52134289 au
    Multiplicity: Triplet
    Trans. Mom.:  0.0000 X   0.0000 Y   0.0000 Z
    Strength   :     0.0000000000
    D(   65) --> V(    1) amplitude =  0.2576
    D(   66) --> V(    1) amplitude =  0.7501
    D(   66) --> V(    2) amplitude = -0.1170
    D(   66) --> V(    3) amplitude =  0.1819
    D(   66) --> V(    5) amplitude = -0.1431
    D(   66) --> V(   10) amplitude = -0.1359
    D(   67) --> V(    1) amplitude =  0.3797
    D(   67) --> V(    2) amplitude = -0.0738
    D(   67) --> V(    5) amplitude = -0.0837
    D(   69) --> V(    3) amplitude =  0.1000
    D(   70) --> V(    3) amplitude = -0.2565
    D(   70) --> V(    5) amplitude = -0.0773

 Excited state  11: excitation energy (eV) =       4.4197
 Total energy for state  11:                  -953.50687332 au
    Multiplicity: Singlet
    Trans. Mom.:  0.8764 X   0.6166 Y   0.0844 Z
    Strength   :     0.1251091362
    D(   65) --> V(    1) amplitude = -0.2030
    D(   66) --> V(    1) amplitude =  0.3183
    D(   66) --> V(    2) amplitude = -0.0961
    D(   66) --> V(    5) amplitude = -0.0892
    D(   67) --> V(    1) amplitude =  0.7602
    D(   69) --> V(    1) amplitude = -0.1548
    D(   69) --> V(    3) amplitude = -0.1630
    D(   70) --> V(    2) amplitude =  0.2127
    D(   70) --> V(    3) amplitude =  0.3525

 Excited state  12: excitation energy (eV) =       4.5509
 Total energy for state  12:                  -953.50204932 au
    Multiplicity: Singlet
    Trans. Mom.: -0.7090 X  -0.6108 Y   0.1709 Z
    Strength   :     0.1009098092
    D(   64) --> V(    1) amplitude = -0.0820
    D(   65) --> V(    1) amplitude =  0.4560
    D(   66) --> V(    1) amplitude =  0.6538
    D(   66) --> V(    5) amplitude = -0.0873
    D(   67) --> V(    1) amplitude = -0.3647
    D(   67) --> V(    3) amplitude =  0.0967
    D(   69) --> V(    1) amplitude =  0.1060
    D(   69) --> V(    2) amplitude = -0.0719
    D(   69) --> V(    3) amplitude = -0.1189
    D(   70) --> V(    2) amplitude =  0.1785
    D(   70) --> V(    3) amplitude =  0.3263

 Excited state  13: excitation energy (eV) =       4.5937
 Total energy for state  13:                  -953.50047605 au
    Multiplicity: Singlet
    Trans. Mom.:  0.8816 X   0.2782 Y   0.5673 Z
    Strength   :     0.1324000572
    D(   65) --> V(    1) amplitude =  0.3948
    D(   65) --> V(    5) amplitude =  0.0799
    D(   66) --> V(    1) amplitude = -0.3026
    D(   69) --> V(    1) amplitude = -0.2588
    D(   69) --> V(    2) amplitude =  0.1778
    D(   69) --> V(   10) amplitude = -0.0928
    D(   70) --> V(    2) amplitude =  0.7148
    D(   70) --> V(    3) amplitude = -0.1556
    D(   70) --> V(    5) amplitude = -0.2372

 Excited state  14: excitation energy (eV) =       4.9576
 Total energy for state  14:                  -953.48710443 au
    Multiplicity: Singlet
    Trans. Mom.: -0.1772 X  -0.0228 Y  -0.1544 Z
    Strength   :     0.0067733314
    D(   66) --> V(    1) amplitude = -0.1545
    D(   67) --> V(    1) amplitude = -0.0735
    D(   70) --> V(    3) amplitude =  0.2866
    D(   70) --> V(    4) amplitude =  0.7923
    D(   70) --> V(    6) amplitude = -0.1340
    D(   70) --> V(    7) amplitude = -0.1847
    D(   70) --> V(    8) amplitude =  0.3385
    D(   70) --> V(   11) amplitude = -0.1997
 
 ---------------------------------------------------

 Direct TDDFT calculation will be performed
 Exchange:     0.1900 Hartree-Fock + 0.3500 B88 + 0.4600 muB88 + LR-HF
 Correlation:  0.1900 VWN5 + 0.8100 LYP
 Using SG-1 standard quadrature grid
 ---------------------------------------------------
 Iter    Rts Conv    Rts Left    Ttl Dev     Max Dev
 ---------------------------------------------------
   1         0           7      0.001106    0.000250
   2         0           7      0.000377    0.000087
   3         0           7      0.000214    0.000051
   4         0           7      0.000111    0.000025
   5         0           7      0.000064    0.000017
   6         1           6      0.000036    0.000013
   7         2           5      0.000020    0.000008
   8         4           3      0.000008    0.000003
   9         6           1      0.000006    0.000002
  10         7           0      0.000005    0.000001    Roots Converged
 ---------------------------------------------------
 Triplets done: starting singlet calculation
 ---------------------------------------------------
 Iter    Rts Conv    Rts Left    Ttl Dev     Max Dev
 ---------------------------------------------------
  11         0           7      0.001228    0.000316
  12         0           7      0.000427    0.000092
  13         0           7      0.000238    0.000049
  14         0           7      0.000154    0.000033
  15         0           7      0.000139    0.000057
  16         1           6      0.000059    0.000030
  17         1           6      0.000047    0.000027
  18         2           5      0.000031    0.000017
  19         4           3      0.000018    0.000012
  20         5           2      0.000014    0.000009
  21         6           1      0.000013    0.000009
  22         6           1      0.000009    0.000005
  23         6           1      0.000008    0.000004
  24         6           1      0.000005    0.000001
  25         6           1      0.000005    0.000001
  26         7           0      0.000004    0.000001    Roots Converged
 ---------------------------------------------------
 
 ---------------------------------------------------
             TDDFT Excitation Energies              
 ---------------------------------------------------

 Excited state   1: excitation energy (eV) =        0.4408
 Total energy for state   1:                  -953.65309342 au
    Multiplicity: Triplet 
    Trans. Mom.:  0.0000 X   0.0000 Y   0.0000 Z
    Strength   :     0.0000000000
    X: D(   58) --> V(    1) amplitude = -0.0882
    Y: D(   58) --> V(    1) amplitude = -0.0726
    X: D(   59) --> V(    1) amplitude = -0.1196
    Y: D(   59) --> V(    1) amplitude = -0.0988
    X: D(   65) --> V(    1) amplitude =  0.1057
    Y: D(   65) --> V(    1) amplitude =  0.0713
    X: D(   65) --> V(   10) amplitude =  0.0870
    X: D(   66) --> V(    3) amplitude = -0.0793
    X: D(   67) --> V(    1) amplitude = -0.1560
    Y: D(   67) --> V(    1) amplitude = -0.1069
    X: D(   67) --> V(    2) amplitude = -0.0730
    X: D(   67) --> V(   10) amplitude = -0.0879
    X: D(   69) --> V(    5) amplitude =  0.1168
    Y: D(   69) --> V(    5) amplitude =  0.0975
    X: D(   70) --> V(    1) amplitude =  1.2257
    Y: D(   70) --> V(    1) amplitude =  0.7562
    X: D(   70) --> V(    2) amplitude =  0.0754
    X: D(   70) --> V(   10) amplitude =  0.1032

 Excited state   2: excitation energy (eV) =        2.3164
 Total energy for state   2:                  -953.58416663 au
    Multiplicity: Singlet 
    Trans. Mom.:  2.3130 X   1.9158 Y  -0.3266 Z
    Strength   :     0.5179531316
    X: D(   70) --> V(    1) amplitude =  0.9954
    Y: D(   70) --> V(    1) amplitude = -0.0970

 Excited state   3: excitation energy (eV) =        2.8028
 Total energy for state   3:                  -953.56629268 au
    Multiplicity: Triplet 
    Trans. Mom.:  0.0000 X   0.0000 Y   0.0000 Z
    Strength   :     0.0000000000
    X: D(   64) --> V(    1) amplitude = -0.1071
    X: D(   65) --> V(   10) amplitude =  0.0797
    X: D(   66) --> V(    3) amplitude =  0.1563
    X: D(   67) --> V(    5) amplitude =  0.1786
    X: D(   69) --> V(    1) amplitude =  0.8023
    Y: D(   69) --> V(    1) amplitude =  0.0854
    X: D(   69) --> V(   10) amplitude = -0.1248
    X: D(   70) --> V(    2) amplitude =  0.3930
    Y: D(   70) --> V(    2) amplitude =  0.0769
    X: D(   70) --> V(    3) amplitude = -0.1747
    X: D(   70) --> V(    5) amplitude =  0.2047

 Excited state   4: excitation energy (eV) =        3.1012
 Total energy for state   4:                  -953.55532670 au
    Multiplicity: Triplet 
    Trans. Mom.:  0.0000 X   0.0000 Y   0.0000 Z
    Strength   :     0.0000000000
    X: D(   68) --> V(    1) amplitude =  0.9780
[...]
      XZZZ     -54.9065   YZZZ    -174.4118   ZZZZ   -1847.7079
    5th-Order Moments (Debye-Ang^4)
       500   15633.8797    410   -7949.7292    320    -445.8162
       230   -4423.9730    140   -6012.5584    050  -39968.5511
       401    1161.1501    311     408.2385    221    1394.5215
       131    1386.5093    041    2402.5722    302    3419.4472
       212   -1713.4770    122   -1343.9458    032   -5320.9312
       203     400.5890    113    -223.3065    023    -453.8528
       104    2248.2212    014   -2444.5837    005   -4168.0489
 -----------------------------------------------------------------
 -----------------------------------------------------------------
                 RPA Excited-State Multipoles, State    4   
                  LMN = < X^L Y^M Z^N >
 -----------------------------------------------------------------
    Charge (ESU x 10^10)
                 0.0000
    Dipole Moment (Debye)
         X      -1.9833      Y      -2.5163      Z       2.6137
       Tot       4.1348
    Quadrupole Moments (Debye-Ang)
        XX     -71.5261     XY      30.2209     YY    -109.3605
        XZ       6.7332     YZ       9.6960     ZZ    -111.6073
    Octopole Moments (Debye-Ang^2)
       XXX     154.9694    XXY    -284.0884    XYY     182.1642
       YYY    -690.7856    XXZ      -4.8859    XYZ      54.6026
       YYZ      17.3193    XZZ     134.9528    YZZ    -223.4451
       ZZZ    -130.4905
    Hexadecapole Moments (Debye-Ang^3)
      XXXX   -3699.3157   XXXY      -9.4650   XXYY   -1434.8704
      XYYY    -447.3094   YYYY   -5707.3312   XXXZ      92.6132
      XXYZ     155.4782   XYYZ     255.6344   YYYZ     320.8867
      XXZZ   -1198.1030   XYZZ    -242.4855   YYZZ   -1158.9912
      XZZZ     -15.3872   YZZZ     -39.2980   ZZZZ   -1562.0667
    5th-Order Moments (Debye-Ang^4)
       500   16931.4835    410   -8212.2072    320    -692.9145
       230   -5089.2225    140   -7162.1481    050  -42765.0195
       401    1096.8192    311     415.5321    221    1450.3977
       131    1493.4964    041    2580.5667    302    3519.7525
       212   -1720.5361    122   -1319.8046    032   -5247.5379
       203     390.3916    113    -171.5489    023    -237.5495
       104    2375.0196    014   -2031.4024    005   -3212.3404
 -----------------------------------------------------------------
 -----------------------------------------------------------------
                 RPA Excited-State Multipoles, State    5   
                  LMN = < X^L Y^M Z^N >
 -----------------------------------------------------------------
    Charge (ESU x 10^10)
                 0.0000
    Dipole Moment (Debye)
         X      -1.8761      Y      -2.5984      Z       2.8821
       Tot       4.3101
    Quadrupole Moments (Debye-Ang)
        XX     -71.9679     XY      30.1201     YY    -110.0221
        XZ       6.9478     YZ      10.1516     ZZ    -110.7617
    Octopole Moments (Debye-Ang^2)
       XXX     155.8460    XXY    -284.8897    XYY     181.1437
       YYY    -694.2718    XXZ      -4.8751    XYZ      54.9063
       YYZ      18.0217    XZZ     135.6069    YZZ    -222.1244
       ZZZ    -127.4678
    Hexadecapole Moments (Debye-Ang^3)
      XXXX   -3706.1388   XXXY     -11.1161   XXYY   -1438.8171
      XYYY    -453.8452   YYYY   -5725.4872   XXXZ      92.6590
      XXYZ     155.6871   XYYZ     256.3386   YYYZ     322.2378
      XXZZ   -1199.0164   XYZZ    -241.9207   YYZZ   -1157.4950
      XZZZ     -13.8477   YZZZ     -34.5048   ZZZZ   -1552.4251
    5th-Order Moments (Debye-Ang^4)
       500   16953.9393    410   -8220.0643    320    -702.6788
       230   -5109.1230    140   -7199.1897    050  -42860.4908
       401    1098.9473    311     416.0107    221    1451.0424
       131    1495.3932    041    2583.8026    302    3523.5345
       212   -1720.9610    122   -1319.2323    032   -5247.1401
       203     389.4721    113    -169.7453    023    -230.6937
       104    2379.9648    014   -2016.4234    005   -3180.2759
 -----------------------------------------------------------------
 -----------------------------------------------------------------
                 RPA Excited-State Multipoles, State    6   
                  LMN = < X^L Y^M Z^N >
 -----------------------------------------------------------------
    Charge (ESU x 10^10)
                 0.0000
    Dipole Moment (Debye)
         X      -7.6743      Y      -2.2248      Z      -4.9284
       Tot       9.3880
    Quadrupole Moments (Debye-Ang)
        XX     -51.8296     XY      29.6825     YY     -98.7430
        XZ       0.0308     YZ      -3.8973     ZZ    -134.0144
    Octopole Moments (Debye-Ang^2)
       XXX     100.3294    XXY    -263.2908    XYY     193.4774
       YYY    -630.4485    XXZ       2.0463    XYZ      48.6394
       YYZ      -4.2981    XZZ     113.9207    YZZ    -260.2694
       ZZZ    -208.2358
    Hexadecapole Moments (Debye-Ang^3)
      XXXX   -3447.8699   XXXY       7.2445   XXYY   -1334.0197
      XYYY    -329.4341   YYYY   -5369.3896   XXXZ      47.6591
      XXYZ     133.9603   XYYZ     226.2734   YYYZ     268.3185
      XXZZ   -1161.2466   XYZZ    -257.6051   YYZZ   -1209.5298
      XZZZ     -62.9576   YZZZ    -159.7282   ZZZZ   -1813.2190
    5th-Order Moments (Debye-Ang^4)
       500   16142.0163    410   -8009.6975    320    -563.1406
       230   -4649.0621    140   -6427.4890    050  -40904.9843
       401    1232.8796    311     432.5640    221    1415.4817
       131    1396.6950    041    2412.4777    302    3366.8795
       212   -1726.0596    122   -1356.1204    032   -5318.9581
       203     437.6339    113    -217.0417    023    -420.9944
       104    2232.5497    014   -2399.6657    005   -4061.4655
 -----------------------------------------------------------------
 -----------------------------------------------------------------
                 RPA Excited-State Multipoles, State    7   
                  LMN = < X^L Y^M Z^N >
 -----------------------------------------------------------------
    Charge (ESU x 10^10)
                 0.0000
    Dipole Moment (Debye)
         X      -4.4641      Y      -0.4761      Z      -3.8737
       Tot       5.9297
    Quadrupole Moments (Debye-Ang)
        XX     -60.6337     XY      32.7032     YY     -92.6083
        XZ       0.7950     YZ      -1.6068     ZZ    -131.5548
    Octopole Moments (Debye-Ang^2)
       XXX     140.3753    XXY    -260.7253    XYY     207.6328
       YYY    -601.4658    XXZ      -3.6715    XYZ      46.6546
       YYZ      -0.4590    XZZ     115.6041    YZZ    -255.0178
       ZZZ    -200.9401
    Hexadecapole Moments (Debye-Ang^3)
      XXXX   -3586.7330   XXXY      20.4887   XXYY   -1331.0708
      XYYY    -283.0264   YYYY   -5242.9286   XXXZ      88.5269
      XXYZ     143.0337   XYYZ     227.1943   YYYZ     278.8772
      XXZZ   -1163.7140   XYZZ    -257.6720   YYZZ   -1197.7605
      XZZZ     -58.2754   YZZZ    -146.4858   ZZZZ   -1787.2608
    5th-Order Moments (Debye-Ang^4)
       500   16772.1888    410   -7942.4966    320    -425.8033
       230   -4542.5866    140   -6187.2722    050  -40290.4187
       401    1004.7307    311     404.4794    221    1413.5700
       131    1392.6074    041    2435.7823    302    3386.5033
       212   -1710.8615    122   -1345.1183    032   -5278.1507
       203     414.3377    113    -220.1932    023    -396.7197
       104    2230.0969    014   -2356.3576    005   -3982.5352
 -----------------------------------------------------------------
 -----------------------------------------------------------------
                 RPA Excited-State Multipoles, State    8   
                  LMN = < X^L Y^M Z^N >
 -----------------------------------------------------------------
    Charge (ESU x 10^10)
                 0.0000
    Dipole Moment (Debye)
         X     -11.3670      Y      -3.1299      Z      -8.0215
       Tot      14.2601
    Quadrupole Moments (Debye-Ang)
        XX     -29.3785     XY      34.0261     YY     -95.6547
        XZ       2.0090     YZ      -8.4524     ZZ    -140.0671
    Octopole Moments (Debye-Ang^2)
       XXX       5.9545    XXY    -261.0346    XYY     204.0213
       YYY    -609.6582    XXZ       1.9019    XYZ      54.2670
       YYZ     -11.4930    XZZ     115.2604    YZZ    -268.9977
       ZZZ    -227.6444
    Hexadecapole Moments (Debye-Ang^3)
      XXXX   -2977.6283   XXXY      50.9171   XXYY   -1274.8380
      XYYY    -252.4421   YYYY   -5235.0202   XXXZ      25.7330
      XXYZ     118.7181   XYYZ     233.7464   YYYZ     254.4487
      XXZZ   -1157.6158   XYZZ    -250.5353   YYZZ   -1221.4100
      XZZZ     -52.9767   YZZZ    -187.6585   ZZZZ   -1866.1023
    5th-Order Moments (Debye-Ang^4)
       500   14028.4432    410   -8045.6893    320    -537.0131
       230   -4436.1122    140   -6028.1759    050  -40136.5829
       401    1386.1464    311     472.9078    221    1394.9315
       131    1411.6976    041    2383.4096    302    3337.4591
       212   -1738.1685    122   -1346.9737    032   -5334.9895
       203     425.6493    113    -194.0639    023    -465.4271
       104    2254.4552    014   -2476.7528    005   -4235.7978
 -----------------------------------------------------------------
 -----------------------------------------------------------------
                 RPA Excited-State Multipoles, State    9   
                  LMN = < X^L Y^M Z^N >
 -----------------------------------------------------------------
    Charge (ESU x 10^10)
                 0.0000
    Dipole Moment (Debye)
         X     -11.9873      Y      -4.6516      Z      -6.1841
       Tot      14.2681
    Quadrupole Moments (Debye-Ang)
        XX     -33.0397     XY      27.9911     YY    -107.6666
        XZ       4.2225     YZ      -3.1313     ZZ    -136.4501
    Octopole Moments (Debye-Ang^2)
       XXX      -7.2812    XXY    -267.6545    XYY     186.1548
       YYY    -665.8275    XXZ     -22.0448    XYZ      45.0947
       YYZ      -3.5767    XZZ     109.4295    YZZ    -263.5459
       ZZZ    -221.4460
    Hexadecapole Moments (Debye-Ang^3)
      XXXX   -2893.8411   XXXY     -18.7644   XXYY   -1368.7778
      XYYY    -380.2018   YYYY   -5537.3743   XXXZ     191.6178
      XXYZ     156.9720   XYYZ     238.7484   YYYZ     287.0087
      XXZZ   -1136.2328   XYZZ    -267.4817   YYZZ   -1223.6009
      XZZZ     -34.4750   YZZZ    -165.5295   ZZZZ   -1839.3101
    5th-Order Moments (Debye-Ang^4)
       500   13066.3146    410   -7978.1696    320    -645.4921
       230   -4830.3723    140   -6735.2921    050  -41770.5767
       401     482.9560    311     399.0610    221    1434.7853
       131    1442.7627    041    2517.2818    302    3198.1524
       212   -1692.6127    122   -1355.3516    032   -5351.3842
       203     288.5958    113    -232.7368    023    -441.2778
       104    2220.5633    014   -2428.6153    005   -4184.7929
 -----------------------------------------------------------------
 -----------------------------------------------------------------
                 RPA Excited-State Multipoles, State   10   
                  LMN = < X^L Y^M Z^N >
 -----------------------------------------------------------------
    Charge (ESU x 10^10)
                 0.0000
    Dipole Moment (Debye)
         X      -0.8740      Y       3.8812      Z      -6.7228
       Tot       7.8118
    Quadrupole Moments (Debye-Ang)
        XX     -59.3552     XY      42.8975     YY     -69.4726
        XZ       3.6560     YZ      -4.7502     ZZ    -135.5259
    Octopole Moments (Debye-Ang^2)
       XXX     145.6408    XXY    -256.8561    XYY     237.6618
       YYY    -498.4292    XXZ      -1.1749    XYZ      53.4288
       YYZ      -5.7927    XZZ     128.8716    YZZ    -246.3939
       ZZZ    -222.3442
    Hexadecapole Moments (Debye-Ang^3)
      XXXX   -3576.6653   XXXY      27.2852   XXYY   -1337.0472
      XYYY    -214.1062   YYYY   -4824.2733   XXXZ     103.3446
      XXYZ     171.6259   XYYZ     266.7938   YYYZ     280.3290
      XXZZ   -1175.3288   XYZZ    -228.7176   YYZZ   -1137.7646
      XZZZ     -48.5208   YZZZ    -172.0925   ZZZZ   -1843.8905
    5th-Order Moments (Debye-Ang^4)
       500   16564.6159    410   -8095.9003    320    -569.6601
       230   -4759.7744    140   -6227.9997    050  -38770.9729
       401    1111.2474    311     466.7501    221    1532.9744
       131    1585.5874    041    2509.2145    302    3487.3152
       212   -1666.8627    122   -1219.5216    032   -4959.9622
       203     390.1705    113    -218.0597    023    -445.4970
       104    2287.3015    014   -2391.2493    005   -4190.9202
 -----------------------------------------------------------------
 -----------------------------------------------------------------
                 RPA Excited-State Multipoles, State   11   
                  LMN = < X^L Y^M Z^N >
 -----------------------------------------------------------------
    Charge (ESU x 10^10)
                 0.0000
    Dipole Moment (Debye)
         X      -4.0215      Y       0.2055      Z      -4.6465
       Tot       6.1485
    Quadrupole Moments (Debye-Ang)
        XX     -55.7539     XY      37.3356     YY     -86.1906
        XZ       1.1777     YZ      -4.3143     ZZ    -130.6148
    Octopole Moments (Debye-Ang^2)
       XXX     122.7794    XXY    -257.7978    XYY     224.3688
       YYY    -563.7413    XXZ      -5.7842    XYZ      43.6244
       YYZ     -15.0510    XZZ     121.6769    YZZ    -249.7157
       ZZZ    -200.1549
    Hexadecapole Moments (Debye-Ang^3)
      XXXX   -3491.2924   XXXY      40.5009   XXYY   -1297.7497
      XYYY    -196.2090   YYYY   -5026.8889   XXXZ      65.4735
      XXYZ     124.3345   XYYZ     202.4491   YYYZ     203.5849
      XXZZ   -1168.8895   XYZZ    -247.5824   YYZZ   -1181.0352
      XZZZ     -47.7887   YZZZ    -143.3204   ZZZZ   -1779.4352
    5th-Order Moments (Debye-Ang^4)
       500   16330.6598    410   -7961.9896    320    -389.0186
       230   -4394.0134    140   -5757.6845    050  -39106.2960
       401    1091.6796    311     382.5189    221    1340.9386
       131    1255.7678    041    2046.6855    302    3402.7348
       212   -1713.7805    122   -1317.2771    032   -5212.5522
       203     397.6461    113    -218.8337    023    -411.9067
       104    2280.2993    014   -2320.8487    005   -3964.7686
 -----------------------------------------------------------------
 -----------------------------------------------------------------
                 RPA Excited-State Multipoles, State   12   
                  LMN = < X^L Y^M Z^N >
 -----------------------------------------------------------------
    Charge (ESU x 10^10)
                 0.0000
    Dipole Moment (Debye)
         X      -6.4875      Y      -1.9037      Z      -4.0406
       Tot       7.8764
    Quadrupole Moments (Debye-Ang)
        XX     -55.1543     XY      29.6840     YY     -99.6462
        XZ       2.7236     YZ      -1.5181     ZZ    -130.4548
    Octopole Moments (Debye-Ang^2)
       XXX     109.7255    XXY    -261.4449    XYY     196.0333
       YYY    -635.0964    XXZ     -10.0474    XYZ      50.1484
       YYZ       1.0569    XZZ     111.4317    YZZ    -255.0266
       ZZZ    -201.4766
    Hexadecapole Moments (Debye-Ang^3)
      XXXX   -3480.5442   XXXY     -21.5432   XXYY   -1359.6666
      XYYY    -346.3646   YYYY   -5417.7429   XXXZ     130.1282
      XXYZ     143.5761   XYYZ     240.4527   YYYZ     293.1691
      XXZZ   -1146.7752   XYZZ    -260.9289   YYZZ   -1204.2459
      XZZZ     -49.3007   YZZZ    -143.0529   ZZZZ   -1788.4524
    5th-Order Moments (Debye-Ang^4)
       500   16189.1707    410   -7905.7620    320    -559.5251
       230   -4734.4891    140   -6564.5729    050  -41265.8140
       401     819.5355    311     449.9240    221    1441.5352
       131    1460.2476    041    2538.5912    302    3293.0277
       212   -1710.7642    122   -1356.5206    032   -5316.0911
       203     382.0875    113    -212.2985    023    -390.0927
       104    2225.9026    014   -2358.3482    005   -4012.0131
 -----------------------------------------------------------------
 -----------------------------------------------------------------
                 RPA Excited-State Multipoles, State   13   
                  LMN = < X^L Y^M Z^N >
 -----------------------------------------------------------------
    Charge (ESU x 10^10)
                 0.0000
    Dipole Moment (Debye)
         X      -1.4512      Y       2.4858      Z      -4.7923
       Tot       5.5903
    Quadrupole Moments (Debye-Ang)
        XX     -59.5595     XY      41.4628     YY     -76.9677
        XZ       3.9598     YZ      -0.3804     ZZ    -134.1564
    Octopole Moments (Debye-Ang^2)
       XXX     161.6478    XXY    -243.0649    XYY     245.4854
       YYY    -524.0999    XXZ      -3.8309    XYZ      55.5218
       YYZ      10.5402    XZZ     120.6820    YZZ    -253.8477
       ZZZ    -211.5027
    Hexadecapole Moments (Debye-Ang^3)
      XXXX   -3591.3567   XXXY      69.9954   XXYY   -1254.1862
      XYYY    -119.5263   YYYY   -4874.5997   XXXZ     115.9477
      XXYZ     162.8381   XYYZ     268.8654   YYYZ     345.7070
      XXZZ   -1166.7816   XYZZ    -245.8413   YYZZ   -1181.8342
      XZZZ     -48.2557   YZZZ    -155.3205   ZZZZ   -1823.3870
    5th-Order Moments (Debye-Ang^4)
       500   17010.5879    410   -7802.6704    320    -193.8005
       230   -4174.6846    140   -5438.5281    050  -38528.0373
       401     980.9533    311     462.3796    221    1506.1805
       131    1585.9893    041    2795.0191    302    3418.0587
       212   -1687.1830    122   -1287.3566    032   -5175.4309
       203     392.1851    113    -205.4187    023    -400.2765
       104    2253.6171    014   -2398.4003    005   -4116.1776
 -----------------------------------------------------------------
 -----------------------------------------------------------------
                 RPA Excited-State Multipoles, State   14   
                  LMN = < X^L Y^M Z^N >
 -----------------------------------------------------------------
    Charge (ESU x 10^10)
                 0.0000
    Dipole Moment (Debye)
         X      -7.6858      Y      -2.6826      Z      -3.8662
       Tot       9.0120
    Quadrupole Moments (Debye-Ang)
        XX     -56.4689     XY      28.7977     YY    -108.4544
        XZ       3.5838     YZ      -3.1097     ZZ    -137.7576
    Octopole Moments (Debye-Ang^2)
       XXX     101.9076    XXY    -273.4899    XYY     199.6206
       YYY    -671.0030    XXZ     -24.2281    XYZ      47.4966
       YYZ     -16.5482    XZZ     122.7209    YZZ    -268.9456
       ZZZ    -224.7985
    Hexadecapole Moments (Debye-Ang^3)
      XXXX   -3510.3138   XXXY      -7.8506   XXYY   -1410.6057
      XYYY    -336.8494   YYYY   -5600.6511   XXXZ     162.6247
      XXYZ     120.8944   XYYZ     237.6356   YYYZ     216.7651
      XXZZ   -1214.5716   XYZZ    -260.8362   YYZZ   -1280.0874
      XZZZ     -18.3453   YZZZ    -186.3987   ZZZZ   -1955.0407
    5th-Order Moments (Debye-Ang^4)
       500   16178.0342    410   -8139.6837    320    -472.3902
       230   -4840.6278    140   -6427.6540    050  -42051.3849
       401     547.7044    311     404.3122    221    1291.9423
       131    1389.8679    041    2141.7270    302    3513.8845
       212   -1762.4669    122   -1319.5647    032   -5590.5999
       203     192.0899    113    -211.4732    023    -614.2809
       104    2424.0880    014   -2606.5862    005   -4762.7571
 -----------------------------------------------------------------
 Total job time:  6193.62s(wall), 88903.91s(cpu) 
 Fri Jan 31 00:38:49 2025

        *************************************************************
        *                                                           *
        *  Thank you very much for using Q-Chem.  Have a nice day.  *
        *                                                           *
        *************************************************************


