
Running Job 1 of 1 Pelargonidin_H_tddft_full.in
qchem Pelargonidin_H_tddft_full.in_3920748.0 /data/brussel/103/vsc10365/activedata/TDDFTAnthocyanidines/qchem3920748/ 1
/apps/brussel/RL8/skylake/software/Q-Chem/6.2.0/exe/qcprog.exe_s Pelargonidin_H_tddft_full.in_3920748.0 /data/brussel/103/vsc10365/activedata/TDDFTAnthocyanidines/qchem3920748/
                  Welcome to Q-Chem
     A Quantum Leap Into The Future Of Chemistry


 Q-Chem 6.2, Q-Chem, Inc., Pleasanton, CA (2024)

 License issued to: SRG Prof. Dr. Frank De Proft, Vrije Universiteit Brussel

 E. Epifanovsky,  A. T. B. Gilbert,  Xintian Feng,  Joonho Lee,  Yuezhi Mao,  
 N. Mardirossian,  P. Pokhilko,  A. White,  M. Wormit,  M. P. Coons,  
 A. L. Dempwolff,  Zhengting Gan,  D. Hait,  P. R. Horn,  L. D. Jacobson,  
 I. Kaliman,  J. Kussmann,  A. W. Lange,  Ka Un Lao,  D. S. Levine,  Jie Liu,  
 S. C. McKenzie,  A. F. Morrison,  K. D. Nanda,  F. Plasser,  D. R. Rehn,  
 M. L. Vidal,  Zhi-Qiang You,  Ying Zhu,  Huseyin Aksu,  B. Alam,  
 B. Albrecht,  A. Aldossary,  E. Alguire,  J. H. Andersen,  
 J. E. Arias-Martinez,  V. Athavale,  D. Barton,  K. Begam,  A. Behn,  
 N. Bellonzi,  Y. A. Bernard,  E. J. Berquist,  H. Burton,  A. Carreras,  
 K. Carter-Fenk,  Mathew Chow,  Romit Chakraborty,  Chandrima Chakravarty,  
 Junhan Chen,  A. D. Chien,  K. D. Closser,  V. Cofer-Shabica,  L. Cunha,  
 S. Dasgupta,  Jia Deng,  Joseph Dickinson,  M. de Wergifosse,  
 M. Diedenhofen,  Hainam Do,  Wenjie Dou,  S. Ehlert,  Po-Tung Fang,  
 S. Fatehi,  Qingguo Feng,  Jonathan Fetherolf,  T. Friedhoff,  
 Thomas Froitzheim,  Sarai Folkestad,  B. Ganoe,  J. Gayvert,  Qinghui Ge,  
 G. Gidofalvi,  M. Gimferrer,  M. Goldey,  Montgomery Gray,  J. Gomes,  
 C. Gonzalez-Espinoza,  S. Gulania,  A. Gunina,  J. A. Gyamfi,  
 M. W. D. Hanson-Heine,  P. H. P. Harbach,  A. W. Hauser,  M. F. Herbst,  
 M. Hernandez Vera,  M. Hodecker,  Z. C. Holden,  S. Houck,  Xunkun Huang,  
 Kerwin Hui,  B. C. Huynh,  K. Ikeda,  M. Ivanov,  Nayanthara K. Jayadev,  
 Hyunjun Ji,  Zuxin Jin,  Hanjie Jiang,  Subrata Jana,  B. Kaduk,  
 S. Kaehler,  R. Kang,  K. Khistyaev,  Jaehoon Kim,  Yongbin Kim,  
 P. Klunzinger,  Z. Koczor-Benda,  Joong Hoon Koh,  D. Kosenkov,  
 Saikiran Kotaru,  L. Koulias,  T. Kowalczyk,  C. M. Krauter,  K. Kue,  
 A. Kunitsa,  T. Kus,  A. Landau,  K. V. Lawler,  D. Lefrancois,  S. Lehtola,  
 Rain Li,  Shaozhi Li,  Tao E. Li,  Yi-Pei Li,  Jiashu Liang,  M. Liebenthal,  
 Hung-Hsuan Lin,  You-Sheng Lin,  Fenglai Liu,  Kuan-Yu Liu,  Xiao Liu,  
 M. Loipersberger,  A. Luenser,  C. Malbon,  Aniket Mandal,  Manisha,  
 A. Manjanath,  P. Manohar,  E. Mansoor,  S. F. Manzer,  Shan-Ping Mao,  
 A. V. Marenich,  T. Markovich,  S. Mason,  F. Matz,  S. A. Maurer,  
 Samuel May,  Alexandra McIsaac,  P. F. McLaughlin,  M. F. S. J. Menger,  
 J.-M. Mewes,  S. A. Mewes,  P. Morgante,  Mohammad Mostafanejad,  
 Madhubani Mukherjee,  J. W. Mullinax,  Quyen Nguyen,  Avik Kumar Ojha,  
 K. J. Oosterbaan,  Eno Paenurk,  Xiaoliang Pan,  G. Paran,  V. Parravicini,  
 Alexander C. Paul,  Suranjan K. Paul,  F. Pavosevic,  Zheng Pei,  S. Prager,  
 E. I. Proynov,  E. Ramos,  B. Rana,  A. E. Rask,  A. Rettig,  R. M. Richard,  
 F. Rob,  E. Rossomme,  T. Scheele,  M. Scheurer,  M. Schneider,  
 P. E. Schneider,  Tim K. Schramm,  N. Sergueev,  S. M. Sharada,  
 Hengyuan Shen,  W. Skomorowski,  D. W. Small,  C. J. Stein,  
 Alistair J. Sterling,  Yingli Su,  Yu-Chuan Su,  E. J. Sundstrom,  
 J. Talbot,  Zhen Tao,  J. Thirman,  Hung-Yi Tsai,  T. Tsuchimochi,  
 N. M. Tubman,  C. Utku,  S. P. Veccham,  O. Vydrov,  Rahel Weiss,  
 J. Wenzel,  Jonathan Wong,  J. Witte,  H. Wu,  Yanze Wu,  A. Yamada,  
 Chou-Hsun Yang,  Kun Yao,  S. Yeganeh,  S. R. Yost,  Qi Yu,  A. Zech,  
 F. Zeller,  Chongxiao Zhao,  Igor Ying Zhang,  Xing Zhang,  Yu Zhang,  
 D. Zuev,  A. Aspuru-Guzik,  A. T. Bell,  N. A. Besley,  K. B. Bravaya,  
 B. R. Brooks,  D. Casanova,  Jeng-Da Chai,  Hsing-Ta Chen,  S. Coriani,  
 C. J. Cramer,  A. E. DePrince, III,  R. A. DiStasio Jr.,  A. Dreuw,  
 B. D. Dunietz,  T. R. Furlani,  W. A. Goddard III,  S. Grimme,  
 S. Hammes-Schiffer,  T. Head-Gordon,  W. J. Hehre,  Chao-Ping Hsu,  
 T.-C. Jagau,  Yousung Jung,  A. Klamt,  Jing Kong,  D. S. Lambrecht,  
 Xiangyuan Li,  WanZhen Liang,  N. J. Mayhall,  C. W. McCurdy,  J. B. Neaton,  
 T. Neudecker,  C. Ochsenfeld,  J. A. Parkhill,  R. Peverati,  
 V. A. Rassolov,  Haisheng Ren,  Yihan Shao,  L. V. Slipchenko,  
 R. P. Steele,  J. E. Subotnik,  A. J. W. Thom,  A. Tkatchenko,  
 D. G. Truhlar,  T. Van Voorhis,  Fan Wang,  T. A. Wesolowski,  K. B. Whaley,  
 H. L. Woodcock III,  P. M. Zimmerman,  S. Faraji,  P. M. W. Gill,  
 M. Head-Gordon,  J. M. Herbert,  A. I. Krylov

 Contributors to earlier versions of Q-Chem not listed above: 
 R. D. Adamson,  B. Austin,  R. Baer,  J. Baker,  G. J. O. Beran,  
 K. Brandhorst,  S. T. Brown,  E. F. C. Byrd,  Arup K. Chakraborty,  
 G. K. L. Chan,  Chun-Min Chang,  Yunqing Chen,  C.-L. Cheng,  
 Siu Hung Chien,  D. M. Chipman,  D. L. Crittenden,  H. Dachsel,  
 R. J. Doerksen,  A. D. Dutoi,  R. G. Edgar,  J. Fosso-Tande,  
 L. Fusti-Molnar,  D. Ghosh,  A. Ghysels,  A. Golubeva-Zadorozhnaya,  
 J. Gonthier,  M. S. Gordon,  S. R. Gwaltney,  G. Hawkins,  J. E. Herr,  
 A. Heyden,  S. Hirata,  E. G. Hohenstein,  G. Kedziora,  F. J. Keil,  
 C. Kelley,  Jihan Kim,  R. A. King,  R. Z. Khaliullin,  P. P. Korambath,  
 W. Kurlancheek,  A. Laurent,  A. M. Lee,  M. S. Lee,  S. V. Levchenko,  
 Ching Yeh Lin,  D. Liotard,  E. Livshits,  R. C. Lochan,  I. Lotan,  
 L. A. Martinez-Martinez,  P. E. Maslen,  N. Nair,  D. P. O'Neill,  
 D. Neuhauser,  E. Neuscamman,  C. M. Oana,  R. Olivares-Amaya,  R. Olson,  
 T. M. Perrine,  B. Peters,  P. A. Pieniazek,  A. Prociuk,  Y. M. Rhee,  
 J. Ritchie,  M. A. Rohrdanz,  E. Rosta,  N. J. Russ,  H. F. Schaefer III,  
 M. W. Schmidt,  N. E. Schultz,  S. Sharma,  N. Shenvi,  C. D. Sherrill,  
 A. C. Simmonett,  A. Sodt,  T. Stein,  D. Stuck,  K. S. Thanthiriwatte,  
 V. Vanovschi,  L. Vogt,  Tao Wang,  A. Warshel,  M. A. Watson,  
 C. F. Williams,  Q. Wu,  X. Xu,  Jun Yang,  W. Zhang,  Yan Zhao

   Please cite Q-Chem as follows:
  "Software for the frontiers of quantum chemistry:
   An overview of developments in the Q-Chem 5 package"
   J. Chem. Phys. 155, 084801 (2021)
   https://doi.org/10.1063/5.0055522 (open access)

 Q-Chem 6.2.0 for Intel X86 EM64T Linux

 Parts of Q-Chem use Armadillo 9.900.5 (Nocturnal Misbehaviour).
 http://arma.sourceforge.net/

 Q-Chem begins on Thu Jan 30 21:42:21 2025  

 Host: 
0

     Scratch files written to /data/brussel/103/vsc10365/activedata/TDDFTAnthocyanidines/qchem3920748//
 May224 |scratch|qcdevops|jenkins|workspace|build_RNUM -1
 Processing $rem in /apps/brussel/RL8/skylake/software/Q-Chem/6.2.0/config/preferences:
 Processing $rem in /user/brussel/103/vsc10365/.qchemrc:
 Symmetry turned off for PCM/SM12/SMD calculation

 Checking the input file for inconsistencies... 	...done.

--------------------------------------------------------------
User input:
--------------------------------------------------------------
$comment
TDDFT calculation of pelargonidin H structure
nprocs=16
mem=64gb
$end

$molecule
1 1
C   -4.4699863    0.4196283   -1.0155933
C   -4.6593629   -0.4194720    0.0989342
C   -3.7581760   -0.3980875    1.1361054
C   -2.6308485    0.4706889    1.0856146
C   -2.4940250    1.2878125   -0.0557726
C   -3.3860929    1.2825095   -1.1097213
C   -1.6541549    0.5615806    2.0774191
C   -0.5871520    1.4326939    1.9557380
C   -0.4831709    2.2427245    0.8110911
O   -1.4366156    2.1298805   -0.1255499
C    0.5443789    3.1989296    0.4707647
C    1.4289743    3.7362203    1.4269907
C    2.3764940    4.6728857    1.0666422
C    2.4776634    5.0894605   -0.2618740
C    1.6143208    4.5657388   -1.2292084
C    0.6614547    3.6421865   -0.8650164
O   -5.3480234    0.4160023   -2.0458433
H   -5.5182514   -1.0791364    0.1351204
O   -3.8745657   -1.1726542    2.2394437
H   -3.2477754    1.9240880   -1.9676021
H   -1.7155983   -0.0642688    2.9591809
O    0.3862180    1.5118050    2.8984807
H    1.3602585    3.4401217    2.4601008
H    3.0427995    5.0915959    1.8110213
O    3.3960513    6.0015833   -0.6686857
H    1.7062493    4.8907868   -2.2569920
H    0.0043605    3.2427441   -1.6233233
H   -6.0689378   -0.2103214   -1.8824310
H   -4.6673491   -1.7266245    2.1838046
H    0.1973805    0.8984060    3.6240292
H    3.9354023    6.2958216    0.0804817
$end

$rem
BASIS  =  def2-ma-TZVP
MEM_STATIC  =  2000
MEM_TOTAL  =  64000
METHOD  =  CAM-B3LYP
SOLVENT_METHOD = pcm
SYMMETRY_IGNORE  =  1
CIS_N_ROOTS = 7
CIS_SINGLETS = true
CIS_TRIPLETS = true
CISTR_PRINT = true
RPA = true
PRINT_ORBITALS = true
SCF_PRINT = 1
SCF_FINAL_PRINT = 2
PRINT_GENERAL_BASIS = true
CISTR_PRINT = true
PRINT_RADII_GYRE = true
MULTIPOLE_ORDER = 5
CIS_AMPL_PRINT = 5
CIS_AMPL_ANAL = true
STATE_ANALYSIS = true
$end

$pcm
Theory   CPCM
Method   SWIG
Solver   Inversion
Radii    Bondi
$end

$solvent
Dielectric         78.39
OpticalDielectric  1.777849
$end


--------------------------------------------------------------
 ----------------------------------------------------------------
             Standard Nuclear Orientation (Angstroms)
    I     Atom           X                Y                Z
 ----------------------------------------------------------------
    1      C      -4.4699863000     0.4196283000    -1.0155933000
    2      C      -4.6593629000    -0.4194720000     0.0989342000
    3      C      -3.7581760000    -0.3980875000     1.1361054000
    4      C      -2.6308485000     0.4706889000     1.0856146000
    5      C      -2.4940250000     1.2878125000    -0.0557726000
    6      C      -3.3860929000     1.2825095000    -1.1097213000
    7      C      -1.6541549000     0.5615806000     2.0774191000
    8      C      -0.5871520000     1.4326939000     1.9557380000
    9      C      -0.4831709000     2.2427245000     0.8110911000
   10      O      -1.4366156000     2.1298805000    -0.1255499000
   11      C       0.5443789000     3.1989296000     0.4707647000
   12      C       1.4289743000     3.7362203000     1.4269907000
   13      C       2.3764940000     4.6728857000     1.0666422000
   14      C       2.4776634000     5.0894605000    -0.2618740000
   15      C       1.6143208000     4.5657388000    -1.2292084000
   16      C       0.6614547000     3.6421865000    -0.8650164000
   17      O      -5.3480234000     0.4160023000    -2.0458433000
   18      H      -5.5182514000    -1.0791364000     0.1351204000
   19      O      -3.8745657000    -1.1726542000     2.2394437000
   20      H      -3.2477754000     1.9240880000    -1.9676021000
   21      H      -1.7155983000    -0.0642688000     2.9591809000
   22      O       0.3862180000     1.5118050000     2.8984807000
   23      H       1.3602585000     3.4401217000     2.4601008000
   24      H       3.0427995000     5.0915959000     1.8110213000
   25      O       3.3960513000     6.0015833000    -0.6686857000
   26      H       1.7062493000     4.8907868000    -2.2569920000
   27      H       0.0043605000     3.2427441000    -1.6233233000
   28      H      -6.0689378000    -0.2103214000    -1.8824310000
   29      H      -4.6673491000    -1.7266245000     2.1838046000
   30      H       0.1973805000     0.8984060000     3.6240292000
   31      H       3.9354023000     6.2958216000     0.0804817000
 ----------------------------------------------------------------
 Nuclear Repulsion Energy =        1449.53684673 hartrees
 There are       70 alpha and       70 beta electrons
 Requested basis set is def2-ma-TZVP
 Basis set in general basis input format:
-----------------------------------------------------------------------
$basis
C    0
S    6    1.000000
   1.35753497E+04    2.22458144E-04 
   2.03523337E+03    1.72327383E-03 
   4.63225624E+02    8.92557153E-03 
   1.31200196E+02    3.57279845E-02 
   4.28530159E+01    1.10762599E-01 
   1.55841858E+01    2.42956276E-01 
S    2    1.000000
   6.20671385E+00    4.14402634E-01 
   2.57648965E+00    2.37449687E-01 
S    1    1.000000
   5.76963394E-01    1.00000000E+00 
S    1    1.000000
   2.29728314E-01    1.00000000E+00 
S    1    1.000000
   9.51644400E-02    1.00000000E+00 
S    1    1.000000
   4.84754014E-02    1.00000000E+00 
P    4    1.000000
   3.46972322E+01    5.33336578E-03 
   7.95826228E+00    3.58641091E-02 
   2.37808269E+00    1.42158733E-01 
   8.14332082E-01    3.42704718E-01 
P    1    1.000000
   2.88875473E-01    4.64458224E-01 
P    1    1.000000
   1.00568237E-01    2.49557899E-01 
D    1    1.000000
   1.09700000E+00    1.00000000E+00 
D    1    1.000000
   3.18000000E-01    1.00000000E+00 
F    1    1.000000
   7.61000000E-01    1.00000000E+00 
****
C    0
S    6    1.000000
   1.35753497E+04    2.22458144E-04 
   2.03523337E+03    1.72327383E-03 
   4.63225624E+02    8.92557153E-03 
   1.31200196E+02    3.57279845E-02 
   4.28530159E+01    1.10762599E-01 
   1.55841858E+01    2.42956276E-01 
S    2    1.000000
   6.20671385E+00    4.14402634E-01 
   2.57648965E+00    2.37449687E-01 
S    1    1.000000
   5.76963394E-01    1.00000000E+00 
S    1    1.000000
   2.29728314E-01    1.00000000E+00 
S    1    1.000000
   9.51644400E-02    1.00000000E+00 
S    1    1.000000
   4.84754014E-02    1.00000000E+00 
P    4    1.000000
   3.46972322E+01    5.33336578E-03 
   7.95826228E+00    3.58641091E-02 
   2.37808269E+00    1.42158733E-01 
   8.14332082E-01    3.42704718E-01 
P    1    1.000000
   2.88875473E-01    4.64458224E-01 
P    1    1.000000
   1.00568237E-01    2.49557899E-01 
D    1    1.000000
   1.09700000E+00    1.00000000E+00 
D    1    1.000000
   3.18000000E-01    1.00000000E+00 
F    1    1.000000
   7.61000000E-01    1.00000000E+00 
****
C    0
S    6    1.000000
   1.35753497E+04    2.22458144E-04 
   2.03523337E+03    1.72327383E-03 
   4.63225624E+02    8.92557153E-03 
   1.31200196E+02    3.57279845E-02 
   4.28530159E+01    1.10762599E-01 
   1.55841858E+01    2.42956276E-01 
S    2    1.000000
   6.20671385E+00    4.14402634E-01 
   2.57648965E+00    2.37449687E-01 
S    1    1.000000
   5.76963394E-01    1.00000000E+00 
S    1    1.000000
   2.29728314E-01    1.00000000E+00 
S    1    1.000000
   9.51644400E-02    1.00000000E+00 
S    1    1.000000
   4.84754014E-02    1.00000000E+00 
P    4    1.000000
   3.46972322E+01    5.33336578E-03 
   7.95826228E+00    3.58641091E-02 
   2.37808269E+00    1.42158733E-01 
   8.14332082E-01    3.42704718E-01 
P    1    1.000000
   2.88875473E-01    4.64458224E-01 
P    1    1.000000
   1.00568237E-01    2.49557899E-01 
D    1    1.000000
   1.09700000E+00    1.00000000E+00 
D    1    1.000000
   3.18000000E-01    1.00000000E+00 
F    1    1.000000
   7.61000000E-01    1.00000000E+00 
****
C    0
S    6    1.000000
   1.35753497E+04    2.22458144E-04 
   2.03523337E+03    1.72327383E-03 
   4.63225624E+02    8.92557153E-03 
   1.31200196E+02    3.57279845E-02 
   4.28530159E+01    1.10762599E-01 
   1.55841858E+01    2.42956276E-01 
S    2    1.000000
   6.20671385E+00    4.14402634E-01 
   2.57648965E+00    2.37449687E-01 
S    1    1.000000
   5.76963394E-01    1.00000000E+00 
S    1    1.000000
   2.29728314E-01    1.00000000E+00 
S    1    1.000000
   9.51644400E-02    1.00000000E+00 
S    1    1.000000
   4.84754014E-02    1.00000000E+00 
P    4    1.000000
   3.46972322E+01    5.33336578E-03 
   7.95826228E+00    3.58641091E-02 
   2.37808269E+00    1.42158733E-01 
   8.14332082E-01    3.42704718E-01 
P    1    1.000000
   2.88875473E-01    4.64458224E-01 
P    1    1.000000
   1.00568237E-01    2.49557899E-01 
D    1    1.000000
   1.09700000E+00    1.00000000E+00 
D    1    1.000000
   3.18000000E-01    1.00000000E+00 
F    1    1.000000
   7.61000000E-01    1.00000000E+00 
****
C    0
S    6    1.000000
   1.35753497E+04    2.22458144E-04 
   2.03523337E+03    1.72327383E-03 
   4.63225624E+02    8.92557153E-03 
   1.31200196E+02    3.57279845E-02 
   4.28530159E+01    1.10762599E-01 
   1.55841858E+01    2.42956276E-01 
S    2    1.000000
   6.20671385E+00    4.14402634E-01 
   2.57648965E+00    2.37449687E-01 
S    1    1.000000
   5.76963394E-01    1.00000000E+00 
S    1    1.000000
   2.29728314E-01    1.00000000E+00 
S    1    1.000000
   9.51644400E-02    1.00000000E+00 
S    1    1.000000
   4.84754014E-02    1.00000000E+00 
P    4    1.000000
   3.46972322E+01    5.33336578E-03 
   7.95826228E+00    3.58641091E-02 
   2.37808269E+00    1.42158733E-01 
   8.14332082E-01    3.42704718E-01 
P    1    1.000000
   2.88875473E-01    4.64458224E-01 
P    1    1.000000
   1.00568237E-01    2.49557899E-01 
D    1    1.000000
   1.09700000E+00    1.00000000E+00 
D    1    1.000000
   3.18000000E-01    1.00000000E+00 
F    1    1.000000
   7.61000000E-01    1.00000000E+00 
****
C    0
S    6    1.000000
   1.35753497E+04    2.22458144E-04 
   2.03523337E+03    1.72327383E-03 
   4.63225624E+02    8.92557153E-03 
   1.31200196E+02    3.57279845E-02 
   4.28530159E+01    1.10762599E-01 
   1.55841858E+01    2.42956276E-01 
S    2    1.000000
   6.20671385E+00    4.14402634E-01 
   2.57648965E+00    2.37449687E-01 
S    1    1.000000
   5.76963394E-01    1.00000000E+00 
S    1    1.000000
   2.29728314E-01    1.00000000E+00 
S    1    1.000000
   9.51644400E-02    1.00000000E+00 
S    1    1.000000
   4.84754014E-02    1.00000000E+00 
P    4    1.000000
   3.46972322E+01    5.33336578E-03 
   7.95826228E+00    3.58641091E-02 
   2.37808269E+00    1.42158733E-01 
   8.14332082E-01    3.42704718E-01 
P    1    1.000000
   2.88875473E-01    4.64458224E-01 
P    1    1.000000
   1.00568237E-01    2.49557899E-01 
D    1    1.000000
   1.09700000E+00    1.00000000E+00 
D    1    1.000000
   3.18000000E-01    1.00000000E+00 
F    1    1.000000
   7.61000000E-01    1.00000000E+00 
****
C    0
S    6    1.000000
   1.35753497E+04    2.22458144E-04 
   2.03523337E+03    1.72327383E-03 
   4.63225624E+02    8.92557153E-03 
   1.31200196E+02    3.57279845E-02 
   4.28530159E+01    1.10762599E-01 
   1.55841858E+01    2.42956276E-01 
S    2    1.000000
   6.20671385E+00    4.14402634E-01 
   2.57648965E+00    2.37449687E-01 
S    1    1.000000
   5.76963394E-01    1.00000000E+00 
S    1    1.000000
   2.29728314E-01    1.00000000E+00 
S    1    1.000000
   9.51644400E-02    1.00000000E+00 
S    1    1.000000
   4.84754014E-02    1.00000000E+00 
P    4    1.000000
   3.46972322E+01    5.33336578E-03 
   7.95826228E+00    3.58641091E-02 
   2.37808269E+00    1.42158733E-01 
   8.14332082E-01    3.42704718E-01 
P    1    1.000000
   2.88875473E-01    4.64458224E-01 
P    1    1.000000
   1.00568237E-01    2.49557899E-01 
D    1    1.000000
   1.09700000E+00    1.00000000E+00 
D    1    1.000000
   3.18000000E-01    1.00000000E+00 
F    1    1.000000
   7.61000000E-01    1.00000000E+00 
****
C    0
S    6    1.000000
   1.35753497E+04    2.22458144E-04 
   2.03523337E+03    1.72327383E-03 
   4.63225624E+02    8.92557153E-03 
   1.31200196E+02    3.57279845E-02 
   4.28530159E+01    1.10762599E-01 
   1.55841858E+01    2.42956276E-01 
S    2    1.000000
   6.20671385E+00    4.14402634E-01 
   2.57648965E+00    2.37449687E-01 
S    1    1.000000
   5.76963394E-01    1.00000000E+00 
S    1    1.000000
   2.29728314E-01    1.00000000E+00 
S    1    1.000000
   9.51644400E-02    1.00000000E+00 
S    1    1.000000
   4.84754014E-02    1.00000000E+00 
P    4    1.000000
   3.46972322E+01    5.33336578E-03 
   7.95826228E+00    3.58641091E-02 
   2.37808269E+00    1.42158733E-01 
   8.14332082E-01    3.42704718E-01 
P    1    1.000000
   2.88875473E-01    4.64458224E-01 
P    1    1.000000
   1.00568237E-01    2.49557899E-01 
D    1    1.000000
   1.09700000E+00    1.00000000E+00 
D    1    1.000000
   3.18000000E-01    1.00000000E+00 
F    1    1.000000
   7.61000000E-01    1.00000000E+00 
****
C    0
S    6    1.000000
   1.35753497E+04    2.22458144E-04 
   2.03523337E+03    1.72327383E-03 
   4.63225624E+02    8.92557153E-03 
   1.31200196E+02    3.57279845E-02 
   4.28530159E+01    1.10762599E-01 
   1.55841858E+01    2.42956276E-01 
S    2    1.000000
   6.20671385E+00    4.14402634E-01 
   2.57648965E+00    2.37449687E-01 
S    1    1.000000
   5.76963394E-01    1.00000000E+00 
S    1    1.000000
   2.29728314E-01    1.00000000E+00 
S    1    1.000000
   9.51644400E-02    1.00000000E+00 
S    1    1.000000
   4.84754014E-02    1.00000000E+00 
P    4    1.000000
   3.46972322E+01    5.33336578E-03 
   7.95826228E+00    3.58641091E-02 
   2.37808269E+00    1.42158733E-01 
   8.14332082E-01    3.42704718E-01 
P    1    1.000000
   2.88875473E-01    4.64458224E-01 
P    1    1.000000
   1.00568237E-01    2.49557899E-01 
D    1    1.000000
   1.09700000E+00    1.00000000E+00 
D    1    1.000000
   3.18000000E-01    1.00000000E+00 
F    1    1.000000
   7.61000000E-01    1.00000000E+00 
****
O    0
S    6    1.000000
   2.70323826E+04    2.17263025E-04 
   4.05238714E+03    1.68386622E-03 
   9.22327227E+02    8.73956163E-03 
   2.61240710E+02    3.52399688E-02 
   8.53546414E+01    1.11535191E-01 
   3.10350352E+01    2.55889540E-01 
S    2    1.000000
   1.22608607E+01    3.97687309E-01 
   4.99870760E+00    2.46278494E-01 
S    1    1.000000
   1.17031082E+00    1.00000000E+00 
S    1    1.000000
   4.64747410E-01    1.00000000E+00 
S    1    1.000000
   1.85045364E-01    1.00000000E+00 
S    1    1.000000
   7.02880263E-02    1.00000000E+00 
P    4    1.000000
   6.32749548E+01    6.06851034E-03 
   1.46270494E+01    4.19125758E-02 
   4.45012235E+00    1.61538411E-01 
   1.52757996E+00    3.57069513E-01 
P    1    1.000000
   5.29351179E-01    4.47942075E-01 
P    1    1.000000
   1.74784213E-01    2.44460697E-01 
P    1    1.000000
   5.11127457E-02    1.00000000E+00 
D    1    1.000000
   2.31400000E+00    1.00000000E+00 
D    1    1.000000
   6.45000000E-01    1.00000000E+00 
F    1    1.000000
   1.42800000E+00    1.00000000E+00 
****
C    0
S    6    1.000000
   1.35753497E+04    2.22458144E-04 
   2.03523337E+03    1.72327383E-03 
   4.63225624E+02    8.92557153E-03 
   1.31200196E+02    3.57279845E-02 
   4.28530159E+01    1.10762599E-01 
   1.55841858E+01    2.42956276E-01 
S    2    1.000000
   6.20671385E+00    4.14402634E-01 
   2.57648965E+00    2.37449687E-01 
S    1    1.000000
   5.76963394E-01    1.00000000E+00 
S    1    1.000000
   2.29728314E-01    1.00000000E+00 
S    1    1.000000
   9.51644400E-02    1.00000000E+00 
S    1    1.000000
   4.84754014E-02    1.00000000E+00 
P    4    1.000000
   3.46972322E+01    5.33336578E-03 
   7.95826228E+00    3.58641091E-02 
   2.37808269E+00    1.42158733E-01 
   8.14332082E-01    3.42704718E-01 
P    1    1.000000
   2.88875473E-01    4.64458224E-01 
P    1    1.000000
   1.00568237E-01    2.49557899E-01 
D    1    1.000000
   1.09700000E+00    1.00000000E+00 
D    1    1.000000
   3.18000000E-01    1.00000000E+00 
F    1    1.000000
   7.61000000E-01    1.00000000E+00 
****
C    0
S    6    1.000000
   1.35753497E+04    2.22458144E-04 
   2.03523337E+03    1.72327383E-03 
   4.63225624E+02    8.92557153E-03 
   1.31200196E+02    3.57279845E-02 
   4.28530159E+01    1.10762599E-01 
   1.55841858E+01    2.42956276E-01 
S    2    1.000000
   6.20671385E+00    4.14402634E-01 
   2.57648965E+00    2.37449687E-01 
S    1    1.000000
   5.76963394E-01    1.00000000E+00 
S    1    1.000000
   2.29728314E-01    1.00000000E+00 
S    1    1.000000
   9.51644400E-02    1.00000000E+00 
S    1    1.000000
   4.84754014E-02    1.00000000E+00 
P    4    1.000000
   3.46972322E+01    5.33336578E-03 
   7.95826228E+00    3.58641091E-02 
   2.37808269E+00    1.42158733E-01 
   8.14332082E-01    3.42704718E-01 
P    1    1.000000
   2.88875473E-01    4.64458224E-01 
P    1    1.000000
   1.00568237E-01    2.49557899E-01 
D    1    1.000000
   1.09700000E+00    1.00000000E+00 
D    1    1.000000
   3.18000000E-01    1.00000000E+00 
F    1    1.000000
   7.61000000E-01    1.00000000E+00 
****
C    0
S    6    1.000000
   1.35753497E+04    2.22458144E-04 
   2.03523337E+03    1.72327383E-03 
   4.63225624E+02    8.92557153E-03 
   1.31200196E+02    3.57279845E-02 
   4.28530159E+01    1.10762599E-01 
   1.55841858E+01    2.42956276E-01 
S    2    1.000000
   6.20671385E+00    4.14402634E-01 
   2.57648965E+00    2.37449687E-01 
S    1    1.000000
   5.76963394E-01    1.00000000E+00 
S    1    1.000000
   2.29728314E-01    1.00000000E+00 
S    1    1.000000
   9.51644400E-02    1.00000000E+00 
S    1    1.000000
   4.84754014E-02    1.00000000E+00 
P    4    1.000000
   3.46972322E+01    5.33336578E-03 
   7.95826228E+00    3.58641091E-02 
   2.37808269E+00    1.42158733E-01 
   8.14332082E-01    3.42704718E-01 
P    1    1.000000
   2.88875473E-01    4.64458224E-01 
P    1    1.000000
   1.00568237E-01    2.49557899E-01 
D    1    1.000000
   1.09700000E+00    1.00000000E+00 
D    1    1.000000
   3.18000000E-01    1.00000000E+00 
F    1    1.000000
   7.61000000E-01    1.00000000E+00 
****
C    0
S    6    1.000000
   1.35753497E+04    2.22458144E-04 
   2.03523337E+03    1.72327383E-03 
   4.63225624E+02    8.92557153E-03 
   1.31200196E+02    3.57279845E-02 
   4.28530159E+01    1.10762599E-01 
   1.55841858E+01    2.42956276E-01 
S    2    1.000000
   6.20671385E+00    4.14402634E-01 
   2.57648965E+00    2.37449687E-01 
S    1    1.000000
   5.76963394E-01    1.00000000E+00 
S    1    1.000000
   2.29728314E-01    1.00000000E+00 
S    1    1.000000
   9.51644400E-02    1.00000000E+00 
S    1    1.000000
   4.84754014E-02    1.00000000E+00 
P    4    1.000000
   3.46972322E+01    5.33336578E-03 
   7.95826228E+00    3.58641091E-02 
   2.37808269E+00    1.42158733E-01 
   8.14332082E-01    3.42704718E-01 
P    1    1.000000
   2.88875473E-01    4.64458224E-01 
P    1    1.000000
   1.00568237E-01    2.49557899E-01 
D    1    1.000000
   1.09700000E+00    1.00000000E+00 
D    1    1.000000
   3.18000000E-01    1.00000000E+00 
F    1    1.000000
   7.61000000E-01    1.00000000E+00 
****
C    0
S    6    1.000000
   1.35753497E+04    2.22458144E-04 
   2.03523337E+03    1.72327383E-03 
   4.63225624E+02    8.92557153E-03 
   1.31200196E+02    3.57279845E-02 
   4.28530159E+01    1.10762599E-01 
   1.55841858E+01    2.42956276E-01 
S    2    1.000000
   6.20671385E+00    4.14402634E-01 
   2.57648965E+00    2.37449687E-01 
S    1    1.000000
   5.76963394E-01    1.00000000E+00 
S    1    1.000000
   2.29728314E-01    1.00000000E+00 
S    1    1.000000
   9.51644400E-02    1.00000000E+00 
S    1    1.000000
   4.84754014E-02    1.00000000E+00 
P    4    1.000000
   3.46972322E+01    5.33336578E-03 
   7.95826228E+00    3.58641091E-02 
   2.37808269E+00    1.42158733E-01 
   8.14332082E-01    3.42704718E-01 
P    1    1.000000
   2.88875473E-01    4.64458224E-01 
P    1    1.000000
   1.00568237E-01    2.49557899E-01 
D    1    1.000000
   1.09700000E+00    1.00000000E+00 
D    1    1.000000
   3.18000000E-01    1.00000000E+00 
F    1    1.000000
   7.61000000E-01    1.00000000E+00 
****
C    0
S    6    1.000000
   1.35753497E+04    2.22458144E-04 
   2.03523337E+03    1.72327383E-03 
   4.63225624E+02    8.92557153E-03 
   1.31200196E+02    3.57279845E-02 
   4.28530159E+01    1.10762599E-01 
   1.55841858E+01    2.42956276E-01 
S    2    1.000000
   6.20671385E+00    4.14402634E-01 
   2.57648965E+00    2.37449687E-01 
S    1    1.000000
   5.76963394E-01    1.00000000E+00 
S    1    1.000000
   2.29728314E-01    1.00000000E+00 
S    1    1.000000
   9.51644400E-02    1.00000000E+00 
S    1    1.000000
   4.84754014E-02    1.00000000E+00 
P    4    1.000000
   3.46972322E+01    5.33336578E-03 
   7.95826228E+00    3.58641091E-02 
   2.37808269E+00    1.42158733E-01 
   8.14332082E-01    3.42704718E-01 
P    1    1.000000
   2.88875473E-01    4.64458224E-01 
P    1    1.000000
   1.00568237E-01    2.49557899E-01 
D    1    1.000000
   1.09700000E+00    1.00000000E+00 
D    1    1.000000
   3.18000000E-01    1.00000000E+00 
F    1    1.000000
   7.61000000E-01    1.00000000E+00 
****
O    0
S    6    1.000000
   2.70323826E+04    2.17263025E-04 
   4.05238714E+03    1.68386622E-03 
   9.22327227E+02    8.73956163E-03 
   2.61240710E+02    3.52399688E-02 
   8.53546414E+01    1.11535191E-01 
   3.10350352E+01    2.55889540E-01 
S    2    1.000000
   1.22608607E+01    3.97687309E-01 
   4.99870760E+00    2.46278494E-01 
S    1    1.000000
   1.17031082E+00    1.00000000E+00 
S    1    1.000000
   4.64747410E-01    1.00000000E+00 
S    1    1.000000
   1.85045364E-01    1.00000000E+00 
S    1    1.000000
   7.02880263E-02    1.00000000E+00 
P    4    1.000000
   6.32749548E+01    6.06851034E-03 
   1.46270494E+01    4.19125758E-02 
   4.45012235E+00    1.61538411E-01 
   1.52757996E+00    3.57069513E-01 
P    1    1.000000
   5.29351179E-01    4.47942075E-01 
P    1    1.000000
   1.74784213E-01    2.44460697E-01 
P    1    1.000000
   5.11127457E-02    1.00000000E+00 
D    1    1.000000
   2.31400000E+00    1.00000000E+00 
D    1    1.000000
   6.45000000E-01    1.00000000E+00 
F    1    1.000000
   1.42800000E+00    1.00000000E+00 
****
H    0
S    3    1.000000
   3.40613410E+01    6.02519780E-03 
   5.12357460E+00    4.50210940E-02 
   1.16466260E+00    2.01897260E-01 
S    1    1.000000
   3.27230410E-01    1.00000000E+00 
S    1    1.000000
   1.03072410E-01    1.00000000E+00 
P    1    1.000000
   8.00000000E-01    1.00000000E+00 
****
O    0
S    6    1.000000
   2.70323826E+04    2.17263025E-04 
   4.05238714E+03    1.68386622E-03 
   9.22327227E+02    8.73956163E-03 
   2.61240710E+02    3.52399688E-02 
   8.53546414E+01    1.11535191E-01 
   3.10350352E+01    2.55889540E-01 
S    2    1.000000
   1.22608607E+01    3.97687309E-01 
   4.99870760E+00    2.46278494E-01 
S    1    1.000000
   1.17031082E+00    1.00000000E+00 
S    1    1.000000
   4.64747410E-01    1.00000000E+00 
S    1    1.000000
   1.85045364E-01    1.00000000E+00 
S    1    1.000000
   7.02880263E-02    1.00000000E+00 
P    4    1.000000
   6.32749548E+01    6.06851034E-03 
   1.46270494E+01    4.19125758E-02 
   4.45012235E+00    1.61538411E-01 
   1.52757996E+00    3.57069513E-01 
P    1    1.000000
   5.29351179E-01    4.47942075E-01 
P    1    1.000000
   1.74784213E-01    2.44460697E-01 
P    1    1.000000
   5.11127457E-02    1.00000000E+00 
D    1    1.000000
   2.31400000E+00    1.00000000E+00 
D    1    1.000000
   6.45000000E-01    1.00000000E+00 
F    1    1.000000
   1.42800000E+00    1.00000000E+00 
****
H    0
S    3    1.000000
   3.40613410E+01    6.02519780E-03 
   5.12357460E+00    4.50210940E-02 
   1.16466260E+00    2.01897260E-01 
S    1    1.000000
   3.27230410E-01    1.00000000E+00 
S    1    1.000000
   1.03072410E-01    1.00000000E+00 
P    1    1.000000
   8.00000000E-01    1.00000000E+00 
****
H    0
S    3    1.000000
   3.40613410E+01    6.02519780E-03 
   5.12357460E+00    4.50210940E-02 
   1.16466260E+00    2.01897260E-01 
S    1    1.000000
   3.27230410E-01    1.00000000E+00 
S    1    1.000000
   1.03072410E-01    1.00000000E+00 
P    1    1.000000
   8.00000000E-01    1.00000000E+00 
****
O    0
S    6    1.000000
   2.70323826E+04    2.17263025E-04 
   4.05238714E+03    1.68386622E-03 
   9.22327227E+02    8.73956163E-03 
   2.61240710E+02    3.52399688E-02 
   8.53546414E+01    1.11535191E-01 
   3.10350352E+01    2.55889540E-01 
S    2    1.000000
   1.22608607E+01    3.97687309E-01 
   4.99870760E+00    2.46278494E-01 
S    1    1.000000
   1.17031082E+00    1.00000000E+00 
S    1    1.000000
   4.64747410E-01    1.00000000E+00 
S    1    1.000000
   1.85045364E-01    1.00000000E+00 
S    1    1.000000
   7.02880263E-02    1.00000000E+00 
P    4    1.000000
   6.32749548E+01    6.06851034E-03 
   1.46270494E+01    4.19125758E-02 
   4.45012235E+00    1.61538411E-01 
   1.52757996E+00    3.57069513E-01 
P    1    1.000000
   5.29351179E-01    4.47942075E-01 
P    1    1.000000
   1.74784213E-01    2.44460697E-01 
P    1    1.000000
   5.11127457E-02    1.00000000E+00 
D    1    1.000000
   2.31400000E+00    1.00000000E+00 
D    1    1.000000
   6.45000000E-01    1.00000000E+00 
F    1    1.000000
   1.42800000E+00    1.00000000E+00 
****
H    0
S    3    1.000000
   3.40613410E+01    6.02519780E-03 
   5.12357460E+00    4.50210940E-02 
   1.16466260E+00    2.01897260E-01 
S    1    1.000000
   3.27230410E-01    1.00000000E+00 
S    1    1.000000
   1.03072410E-01    1.00000000E+00 
P    1    1.000000
   8.00000000E-01    1.00000000E+00 
****
H    0
S    3    1.000000
   3.40613410E+01    6.02519780E-03 
   5.12357460E+00    4.50210940E-02 
   1.16466260E+00    2.01897260E-01 
S    1    1.000000
   3.27230410E-01    1.00000000E+00 
S    1    1.000000
   1.03072410E-01    1.00000000E+00 
P    1    1.000000
   8.00000000E-01    1.00000000E+00 
****
O    0
S    6    1.000000
   2.70323826E+04    2.17263025E-04 
   4.05238714E+03    1.68386622E-03 
   9.22327227E+02    8.73956163E-03 
   2.61240710E+02    3.52399688E-02 
   8.53546414E+01    1.11535191E-01 
   3.10350352E+01    2.55889540E-01 
S    2    1.000000
   1.22608607E+01    3.97687309E-01 
   4.99870760E+00    2.46278494E-01 
S    1    1.000000
   1.17031082E+00    1.00000000E+00 
S    1    1.000000
   4.64747410E-01    1.00000000E+00 
S    1    1.000000
   1.85045364E-01    1.00000000E+00 
S    1    1.000000
   7.02880263E-02    1.00000000E+00 
P    4    1.000000
   6.32749548E+01    6.06851034E-03 
   1.46270494E+01    4.19125758E-02 
   4.45012235E+00    1.61538411E-01 
   1.52757996E+00    3.57069513E-01 
P    1    1.000000
   5.29351179E-01    4.47942075E-01 
P    1    1.000000
   1.74784213E-01    2.44460697E-01 
P    1    1.000000
   5.11127457E-02    1.00000000E+00 
D    1    1.000000
   2.31400000E+00    1.00000000E+00 
D    1    1.000000
   6.45000000E-01    1.00000000E+00 
F    1    1.000000
   1.42800000E+00    1.00000000E+00 
****
H    0
S    3    1.000000
   3.40613410E+01    6.02519780E-03 
   5.12357460E+00    4.50210940E-02 
   1.16466260E+00    2.01897260E-01 
S    1    1.000000
   3.27230410E-01    1.00000000E+00 
S    1    1.000000
   1.03072410E-01    1.00000000E+00 
P    1    1.000000
   8.00000000E-01    1.00000000E+00 
****
H    0
S    3    1.000000
   3.40613410E+01    6.02519780E-03 
   5.12357460E+00    4.50210940E-02 
   1.16466260E+00    2.01897260E-01 
S    1    1.000000
   3.27230410E-01    1.00000000E+00 
S    1    1.000000
   1.03072410E-01    1.00000000E+00 
P    1    1.000000
   8.00000000E-01    1.00000000E+00 
****
H    0
S    3    1.000000
   3.40613410E+01    6.02519780E-03 
   5.12357460E+00    4.50210940E-02 
   1.16466260E+00    2.01897260E-01 
S    1    1.000000
   3.27230410E-01    1.00000000E+00 
S    1    1.000000
   1.03072410E-01    1.00000000E+00 
P    1    1.000000
   8.00000000E-01    1.00000000E+00 
****
H    0
S    3    1.000000
   3.40613410E+01    6.02519780E-03 
   5.12357460E+00    4.50210940E-02 
   1.16466260E+00    2.01897260E-01 
S    1    1.000000
   3.27230410E-01    1.00000000E+00 
S    1    1.000000
   1.03072410E-01    1.00000000E+00 
P    1    1.000000
   8.00000000E-01    1.00000000E+00 
****
H    0
S    3    1.000000
   3.40613410E+01    6.02519780E-03 
   5.12357460E+00    4.50210940E-02 
   1.16466260E+00    2.01897260E-01 
S    1    1.000000
   3.27230410E-01    1.00000000E+00 
S    1    1.000000
   1.03072410E-01    1.00000000E+00 
P    1    1.000000
   8.00000000E-01    1.00000000E+00 
****
H    0
S    3    1.000000
   3.40613410E+01    6.02519780E-03 
   5.12357460E+00    4.50210940E-02 
   1.16466260E+00    2.01897260E-01 
S    1    1.000000
   3.27230410E-01    1.00000000E+00 
S    1    1.000000
   1.03072410E-01    1.00000000E+00 
P    1    1.000000
   8.00000000E-01    1.00000000E+00 
****
$end
-----------------------------------------------------------------------
 There are 289 shells and 721 basis functions

 Total QAlloc Memory Limit  64000 MB
 Mega-Array Size      1956 MB
 MEM_STATIC part      2000 MB

 User-specified dielectric constants (eps_0 = 78.39, eps_inf = 1.78)
 Using C-PCM dielectric factor f(eps) = (eps-1)/eps = 0.987243
 Static dielectric constant eps = 78.39
 Discretize the solute cavity surface with Lebedev spheres
	Using 110 Lebedev grid points for each H atom
	Using 194 Lebedev grid points for other atoms
	Atomic van der Waals radii (Bondi set) will be scaled by 1.20
 Using smooth SwiG surface discretization
 Remove points where switching function is < 1.0e-08
 Keep 2064 surface tesserae and discard 3026 interior tesserae
 Molecular Surface Area = 288.849 Angst**2

 A cutoff of  1.0D-12 yielded  30549 shell pairs
 There are    180583 function pairs (    229644 Cartesian)
 Smallest overlap matrix eigenvalue = 4.14E-06

 Scale SEOQF with 1.000000e-02/1.000000e-02/1.000000e-01

 Standard Electronic Orientation quadrupole field applied
 Nucleus-field energy     =    -0.0000000206 hartrees
 Guess from superposition of atomic densities
 Warning:  Energy on first SCF cycle will be non-variational
 SAD guess density has 141.000000 electrons

 -----------------------------------------------------------------------
  General SCF calculation program by
  Eric Jon Sundstrom, Paul Horn, Yuezhi Mao, Dmitri Zuev, Alec White,
  David Stuck, Shaama M.S., Shane Yost, Joonho Lee, David Small,
  Daniel Levine, Susi Lehtola, Hugh Burton, Evgeny Epifanovsky,
  Bang C. Huynh
 -----------------------------------------------------------------------
 Exchange:     0.1900 Hartree-Fock + 0.3500 B88 + 0.4600 muB88 + LR-HF
 Correlation:  0.1900 VWN5 + 0.8100 LYP
 Using SG-1 standard quadrature grid
 using 16 threads for integral computing
 -------------------------------------------------------
 OpenMP Integral computing Module                
 Release: version 1.0, May 2013, Q-Chem Inc. Pittsburgh 
 -------------------------------------------------------
 C-PCM solvent model [f = (eps-1)/eps], solve by matrix inversion
 DFT Correlation          Energy =  -5.72022809578140
 DFT Exchange             Energy = -86.97160754915495
 HF Exchange              Energy = -36.02347903044274
 One-Electron             Energy = -4165.80101901131820
 SCRF wf-dependent energy Energy =   0.00000000000000
 Total Coulomb            Energy = 1884.44276087049457
 Nuclear repulsion Energy = 1449.53684671322230
 A restricted SCF calculation will be
 performed using DIIS
 SCF converges when DIIS error is below 1.0e-08
 DFT Correlation          Energy =  -5.72022809578140
 DFT Exchange             Energy = -86.97160754915495
 HF Exchange              Energy = -36.02347903044274
 One-Electron             Energy = -4165.80101901131820
 SCRF wf-dependent energy Energy =   0.00000000000000
 Total Coulomb            Energy = 1884.44276087049457
 ---------------------------------------
  Cycle       Energy         DIIS error
 ---------------------------------------
 DFT Correlation          Energy =  -5.76040073421832
 DFT Exchange             Energy = -88.54874195459099
 HF Exchange              Energy = -34.46719564808253
 One-Electron             Energy = -4149.02140101397345
 SCRF wf-dependent energy Energy = -16.54934859484433
 Total Coulomb            Energy = 1890.90794440138689
 Nuclear repulsion Energy = 1449.53684671322230
    1    -960.5367261030      2.19e-02  
 DFT Correlation          Energy =  -5.71709666741675
 DFT Exchange             Energy = -87.34265720021251
 HF Exchange              Energy = -34.14096586363726
 One-Electron             Energy = -4139.14779271856241
 SCRF wf-dependent energy Energy = -15.69105517767389
 Total Coulomb            Energy = 1878.59074535240006
 Nuclear repulsion Energy = 1449.53684671322230
    2    -953.9022968311      2.05e-03  
 DFT Correlation          Energy =  -5.73671528393345
 DFT Exchange             Energy = -87.93148846288940
 HF Exchange              Energy = -34.31690875752396
 One-Electron             Energy = -4142.42915860003723
 SCRF wf-dependent energy Energy = -16.53474195633135
 Total Coulomb            Energy = 1883.29025484598992
 Nuclear repulsion Energy = 1449.53684671322230
    3    -953.9119755619      2.14e-03  
 DFT Correlation          Energy =  -5.73721416799433
 DFT Exchange             Energy = -87.92448052814625
 HF Exchange              Energy = -34.31474692530144
 One-Electron             Energy = -4143.54716248188834
 SCRF wf-dependent energy Energy = -16.22056906372950
 Total Coulomb            Energy = 1884.08121219576810
 Nuclear repulsion Energy = 1449.53684671322230
    4    -954.1219115015      3.05e-04  
 DFT Correlation          Energy =  -5.73705456491734
 DFT Exchange             Energy = -87.92562988294721
 HF Exchange              Energy = -34.31581726507183
 One-Electron             Energy = -4143.32609088811932
 SCRF wf-dependent energy Energy = -16.28355197768224
 Total Coulomb            Energy = 1883.92445463871218
 Nuclear repulsion Energy = 1449.53684671322230
    5    -954.1261142581      1.18e-04  
 DFT Correlation          Energy =  -5.73685547251967
 DFT Exchange             Energy = -87.92172363160527
 HF Exchange              Energy = -34.31517689030289
 One-Electron             Energy = -4143.23227232689260
 SCRF wf-dependent energy Energy = -16.29071633655917
 Total Coulomb            Energy = 1883.83299869991083
 Nuclear repulsion Energy = 1449.53684671322230
    6    -954.1268432268      3.26e-05  
 DFT Correlation          Energy =  -5.73688842670564
 DFT Exchange             Energy = -87.92185903996813
 HF Exchange              Energy = -34.31527289792942
 One-Electron             Energy = -4143.24904008744215
 SCRF wf-dependent energy Energy = -16.28925967880400
 Total Coulomb            Energy = 1883.84856796638974
 Nuclear repulsion Energy = 1449.53684671322230
    7    -954.1268992447      1.01e-05  
 DFT Correlation          Energy =  -5.73691087445721
 DFT Exchange             Energy = -87.92258706198217
 HF Exchange              Energy = -34.31550008099307
 One-Electron             Energy = -4143.26189684394103
 SCRF wf-dependent energy Energy = -16.28772487600099
 Total Coulomb            Energy = 1883.86086658228055
 Nuclear repulsion Energy = 1449.53684671322230
    8    -954.1269054512      3.52e-06  
 DFT Correlation          Energy =  -5.73690229448960
 DFT Exchange             Energy = -87.92231286502920
 HF Exchange              Energy = -34.31544855712784
 One-Electron             Energy = -4143.25651241941341
 SCRF wf-dependent energy Energy = -16.28850444220802
 Total Coulomb            Energy = 1883.85592719485226
 Nuclear repulsion Energy = 1449.53684671322230
    9    -954.1269064419      1.28e-06  
 DFT Correlation          Energy =  -5.73690211694077
 DFT Exchange             Energy = -87.92234997778418
 HF Exchange              Energy = -34.31546523671636
 One-Electron             Energy = -4143.25596834843873
 SCRF wf-dependent energy Energy = -16.28874439052834
 Total Coulomb            Energy = 1883.85567665138956
 Nuclear repulsion Energy = 1449.53684671322230
   10    -954.1269066702      4.83e-07  
 DFT Correlation          Energy =  -5.73690261383325
 DFT Exchange             Energy = -87.92235110196634
 HF Exchange              Energy = -34.31546698641279
 One-Electron             Energy = -4143.25610258239340
 SCRF wf-dependent energy Energy = -16.28878698230301
 Total Coulomb            Energy = 1883.85585683742283
 Nuclear repulsion Energy = 1449.53684671322230
   11    -954.1269067058      2.54e-07  
 DFT Correlation          Energy =  -5.73690254671467
 DFT Exchange             Energy = -87.92235222106332
 HF Exchange              Energy = -34.31546746480821
 One-Electron             Energy = -4143.25597902009031
 SCRF wf-dependent energy Energy = -16.28882420060518
 Total Coulomb            Energy = 1883.85577202224749
 Nuclear repulsion Energy = 1449.53684671322230
   12    -954.1269067163      6.55e-08  
 DFT Correlation          Energy =  -5.73690247619426
 DFT Exchange             Energy = -87.92235018584549
 HF Exchange              Energy = -34.31546685763880
 One-Electron             Energy = -4143.25592316072834
 SCRF wf-dependent energy Energy = -16.28884167486490
 Total Coulomb            Energy = 1883.85573092382606
 Nuclear repulsion Energy = 1449.53684671322230
   13    -954.1269067178      4.66e-08  
 DFT Correlation          Energy =  -5.73690250383550
 DFT Exchange             Energy = -87.92235108252528
 HF Exchange              Energy = -34.31546697848337
 One-Electron             Energy = -4143.25593947835841
 SCRF wf-dependent energy Energy = -16.28883964342094
 Total Coulomb            Energy = 1883.85574625525396
 Nuclear repulsion Energy = 1449.53684671322230
   14    -954.1269067182      1.62e-08  
   15    -954.1269067181      6.91e-09  Convergence criterion met
 ---------------------------------------
 DFT Correlation          Energy =  -5.73690250383550
 DFT Exchange             Energy = -87.92235108252528
 HF Exchange              Energy = -34.31546697848337
 One-Electron             Energy = -4143.25593947835841
 SCRF wf-dependent energy Energy = -16.28883964342094
 Total Coulomb            Energy = 1883.85574625525396
 Final Alpha MO Eigenvalues
            1           2           3           4           5           6
    1 -19.3235945 -19.2581128 -19.2570452 -19.2564862 -19.2499524 -10.3885505
            7           8           9          10          11          12
    1 -10.3657651 -10.3566563 -10.3563486 -10.3552189 -10.3394145 -10.3152722
           13          14          15          16          17          18
    1 -10.3001542 -10.2860776 -10.2773710 -10.2771016 -10.2721638 -10.2666803
           19          20          21          22          23          24
    1 -10.2633861 -10.2623741  -1.2512128  -1.1756557  -1.1752001  -1.1715392
           25          26          27          28          29          30
    1  -1.1640621  -0.9889793  -0.9696235  -0.9405893  -0.9041143  -0.8624819
           31          32          33          34          35          36
    1  -0.8546812  -0.8437397  -0.7865507  -0.7839902  -0.7338263  -0.7235546
           37          38          39          40          41          42
    1  -0.7169207  -0.6930392  -0.6618154  -0.6488935  -0.6390194  -0.6328328
           43          44          45          46          47          48
    1  -0.6103682  -0.5991558  -0.5946703  -0.5752537  -0.5611031  -0.5508017
           49          50          51          52          53          54
    1  -0.5413996  -0.5281911  -0.5203014  -0.5162225  -0.5087929  -0.5058829
           55          56          57          58          59          60
    1  -0.5053766  -0.4954386  -0.4934786  -0.4815561  -0.4746546  -0.4635215
           61          62          63          64          65          66
    1  -0.4509942  -0.4475086  -0.4444132  -0.4181624  -0.4165385  -0.3780275
           67          68          69          70          71          72
    1  -0.3404446  -0.3370627  -0.3099340  -0.2792497  -0.0886277  -0.0096837
           73          74          75          76          77          78
    1   0.0144038   0.0235121   0.0251084   0.0347418   0.0372910   0.0435929
           79          80          81          82          83          84
    1   0.0443136   0.0509487   0.0668244   0.0704926   0.0723907   0.0795713
           85          86          87          88          89          90
    1   0.0852320   0.0906663   0.0935693   0.0970804   0.0997706   0.1063486
           91          92          93          94          95          96
    1   0.1089032   0.1173386   0.1216045   0.1236549   0.1298367   0.1339845
           97          98          99         100         101         102
    1   0.1365242   0.1459683   0.1545482   0.1642901   0.1734597   0.1752564
          103         104         105         106         107         108
    1   0.1807915   0.1827321   0.1861969   0.1915180   0.1979113   0.2013125
          109         110         111         112         113         114
    1   0.2045977   0.2078930   0.2107852   0.2211430   0.2264407   0.2293103
          115         116         117         118         119         120
    1   0.2309837   0.2400654   0.2476247   0.2516593   0.2616203   0.2684149
          121         122         123         124         125         126
    1   0.2704943   0.2735263   0.2771137   0.2813915   0.2883349   0.2947302
          127         128         129         130         131         132
    1   0.2986111   0.3034770   0.3064514   0.3078508   0.3121436   0.3138141
          133         134         135         136         137         138
    1   0.3198180   0.3254767   0.3291869   0.3322453   0.3373710   0.3396169
          139         140         141         142         143         144
    1   0.3424881   0.3512062   0.3557477   0.3586265   0.3627902   0.3659483
          145         146         147         148         149         150
    1   0.3727898   0.3790188   0.3850418   0.3893560   0.3939442   0.3967516
          151         152         153         154         155         156
    1   0.4007914   0.4032348   0.4101191   0.4198986   0.4254798   0.4284471
          157         158         159         160         161         162
    1   0.4361085   0.4383222   0.4419651   0.4478195   0.4514821   0.4595634
          163         164         165         166         167         168
    1   0.4632391   0.4683667   0.4687817   0.4744133   0.4797979   0.4810107
          169         170         171         172         173         174
    1   0.4859606   0.4900209   0.4940517   0.5012838   0.5033317   0.5103137
          175         176         177         178         179         180
    1   0.5180063   0.5216909   0.5270608   0.5303705   0.5339029   0.5414379
          181         182         183         184         185         186
    1   0.5449297   0.5476440   0.5573351   0.5607555   0.5680093   0.5752750
          187         188         189         190         191         192
    1   0.5852672   0.5898153   0.5975877   0.6085510   0.6131760   0.6187986
          193         194         195         196         197         198
    1   0.6192391   0.6210625   0.6330353   0.6359018   0.6395922   0.6420186
          199         200         201         202         203         204
    1   0.6513612   0.6545733   0.6652060   0.6727497   0.6740159   0.6817201
          205         206         207         208         209         210
    1   0.6833561   0.6936024   0.7014122   0.7135027   0.7171041   0.7222124
          211         212         213         214         215         216
    1   0.7254859   0.7301481   0.7343675   0.7393993   0.7543865   0.7593512
          217         218         219         220         221         222
    1   0.7671328   0.7681263   0.7784664   0.7847361   0.7893750   0.7930491
          223         224         225         226         227         228
    1   0.7971835   0.8000520   0.8048513   0.8086930   0.8180104   0.8219488
          229         230         231         232         233         234
    1   0.8258814   0.8343806   0.8405533   0.8433103   0.8581332   0.8654218
          235         236         237         238         239         240
    1   0.8743207   0.8836363   0.8909120   0.8972213   0.9021680   0.9140132
          241         242         243         244         245         246
    1   0.9189132   0.9318878   0.9387637   0.9434171   0.9510985   0.9661667
          247         248         249         250         251         252
    1   0.9842091   0.9980147   1.0051572   1.0184847   1.0354805   1.0415998
          253         254         255         256         257         258
    1   1.0500987   1.0574680   1.0664704   1.0747856   1.0825730   1.0945230
          259         260         261         262         263         264
    1   1.0994591   1.1047567   1.1134620   1.1214505   1.1298093   1.1412848
          265         266         267         268         269         270
    1   1.1577249   1.1631844   1.1682815   1.1755588   1.1787306   1.1849299
          271         272         273         274         275         276
    1   1.1872903   1.2084782   1.2188150   1.2265038   1.2274343   1.2452376
          277         278         279         280         281         282
    1   1.2590431   1.2625803   1.2845186   1.2985695   1.3071421   1.3152448
          283         284         285         286         287         288
    1   1.3216691   1.3336937   1.3379188   1.3516408   1.3551376   1.3663841
          289         290         291         292         293         294
    1   1.3750258   1.3858245   1.4006505   1.4022139   1.4098451   1.4283068
          295         296         297         298         299         300
    1   1.4349745   1.4490985   1.4538333   1.4609328   1.4638936   1.4710600
          301         302         303         304         305         306
    1   1.4759671   1.5010259   1.5118439   1.5237504   1.5314990   1.5377443
          307         308         309         310         311         312
    1   1.5393618   1.5575781   1.5596730   1.5741748   1.5789120   1.5885427
          313         314         315         316         317         318
    1   1.5910858   1.6086432   1.6155431   1.6288083   1.6391581   1.6449857
          319         320         321         322         323         324
    1   1.6513751   1.6685850   1.6748365   1.6862657   1.6891749   1.6977321
          325         326         327         328         329         330
    1   1.7052568   1.7098844   1.7165473   1.7229975   1.7386327   1.7425637
          331         332         333         334         335         336
    1   1.7477305   1.7582333   1.7594923   1.7654709   1.7793855   1.7859853
          337         338         339         340         341         342
    1   1.7987481   1.8169363   1.8411371   1.8481174   1.8505663   1.8721437
          343         344         345         346         347         348
    1   1.8760173   1.8884142   1.8930577   1.9077545   1.9090878   1.9310325
          349         350         351         352         353         354
    1   1.9373298   1.9522591   1.9600770   1.9661594   1.9743578   1.9782315
          355         356         357         358         359         360
    1   1.9912169   2.0006715   2.0162489   2.0193831   2.0336553   2.0464525
          361         362         363         364         365         366
    1   2.0529444   2.0586702   2.0666111   2.0883590   2.0906213   2.1061568
          367         368         369         370         371         372
    1   2.1141346   2.1330815   2.1497707   2.1548844   2.1676259   2.1715213
          373         374         375         376         377         378
    1   2.1780678   2.1940139   2.1966353   2.2005126   2.2042072   2.2101418
          379         380         381         382         383         384
    1   2.2123446   2.2209727   2.2273195   2.2397353   2.2521065   2.2741908
          385         386         387         388         389         390
    1   2.2826403   2.2925805   2.3005131   2.3153537   2.3318797   2.3373706
          391         392         393         394         395         396
    1   2.3433601   2.3538433   2.3704951   2.3781565   2.3939040   2.3998421
          397         398         399         400         401         402
    1   2.4096302   2.4198636   2.4342691   2.4378977   2.4577082   2.4766743
          403         404         405         406         407         408
    1   2.4963387   2.5085636   2.5215108   2.5336809   2.5408648   2.5621167
          409         410         411         412         413         414
    1   2.5749958   2.5888140   2.5939665   2.6184148   2.6227632   2.6251024
          415         416         417         418         419         420
    1   2.6507369   2.6572349   2.6659286   2.6737365   2.6841131   2.6889640
          421         422         423         424         425         426
    1   2.7006611   2.7066724   2.7087299   2.7146104   2.7330442   2.7358407
          427         428         429         430         431         432
    1   2.7503394   2.7568617   2.7638713   2.7719331   2.7735802   2.7873492
          433         434         435         436         437         438
    1   2.7917403   2.7956993   2.8010953   2.8068291   2.8156777   2.8352015
          439         440         441         442         443         444
    1   2.8365721   2.8448451   2.8480100   2.8660824   2.8662656   2.8808374
          445         446         447         448         449         450
    1   2.8840031   2.8921757   2.8969547   2.9072951   2.9110227   2.9301949
          451         452         453         454         455         456
    1   2.9307536   2.9459906   2.9505108   2.9592688   2.9698015   2.9818891
          457         458         459         460         461         462
    1   2.9851449   2.9894040   2.9974137   3.0082721   3.0135405   3.0189908
          463         464         465         466         467         468
    1   3.0306265   3.0356790   3.0469808   3.0659099   3.0766454   3.0778086
          469         470         471         472         473         474
    1   3.0825884   3.0914658   3.0962216   3.1084709   3.1188483   3.1257402
          475         476         477         478         479         480
    1   3.1398945   3.1484582   3.1508179   3.1554041   3.1621651   3.1754385
          481         482         483         484         485         486
    1   3.1812826   3.1885463   3.1985386   3.1998924   3.2127815   3.2161730
          487         488         489         490         491         492
    1   3.2217800   3.2311998   3.2424920   3.2440379   3.2510416   3.2598178
          493         494         495         496         497         498
    1   3.2666118   3.2809280   3.2901159   3.2974461   3.3005982   3.3123015
          499         500         501         502         503         504
    1   3.3255225   3.3356514   3.3416132   3.3526829   3.3541764   3.3593946
          505         506         507         508         509         510
    1   3.3691069   3.3713656   3.3895919   3.3959031   3.3981226   3.4121824
          511         512         513         514         515         516
    1   3.4187692   3.4219290   3.4293426   3.4327441   3.4411888   3.4480448
          517         518         519         520         521         522
    1   3.4544862   3.4631137   3.4654663   3.4763270   3.4858334   3.4937205
          523         524         525         526         527         528
    1   3.5043238   3.5119359   3.5183479   3.5276830   3.5288959   3.5390326
          529         530         531         532         533         534
    1   3.5503667   3.5549166   3.5686456   3.5796753   3.5834654   3.5915865
          535         536         537         538         539         540
    1   3.5998210   3.6090757   3.6135469   3.6370331   3.6433553   3.6560141
          541         542         543         544         545         546
    1   3.6647404   3.6712650   3.6833050   3.7037654   3.7126485   3.7327254
          547         548         549         550         551         552
    1   3.7366110   3.7512269   3.7645702   3.7739734   3.8090198   3.8261488
          553         554         555         556         557         558
    1   3.8442997   3.8538298   3.8807340   3.8914309   3.9047300   3.9256186
          559         560         561         562         563         564
    1   3.9391955   3.9517878   3.9619295   4.0004374   4.0059405   4.0172110
          565         566         567         568         569         570
    1   4.0374423   4.0386064   4.0428173   4.0560194   4.0665060   4.0902226
          571         572         573         574         575         576
    1   4.0940901   4.1136384   4.1178402   4.1576561   4.1721084   4.1920122
          577         578         579         580         581         582
    1   4.1960707   4.2158239   4.2237324   4.2370166   4.2437146   4.2496128
          583         584         585         586         587         588
    1   4.2582160   4.2655565   4.2703903   4.2836433   4.2970362   4.3014293
          589         590         591         592         593         594
    1   4.3151793   4.3518643   4.3707167   4.3825549   4.4028345   4.4261203
          595         596         597         598         599         600
    1   4.4420125   4.4472670   4.4690073   4.4962731   4.5102372   4.5247650
          601         602         603         604         605         606
    1   4.5710906   4.5883242   4.5965903   4.6228731   4.6296796   4.6603127
          607         608         609         610         611         612
    1   4.6665271   4.6758672   4.6907599   4.7086353   4.7092316   4.7728380
          613         614         615         616         617         618
    1   4.7940215   4.8030729   4.8252466   4.8616061   4.9188249   4.9232816
          619         620         621         622         623         624
    1   4.9368440   4.9420725   4.9641865   4.9793390   4.9914464   5.0097849
          625         626         627         628         629         630
    1   5.0244599   5.0829250   5.1125125   5.1521987   5.1763294   5.2351455
          631         632         633         634         635         636
    1   5.2671432   5.3018404   5.3050299   5.3063791   5.3147898   5.3172903
          637         638         639         640         641         642
    1   5.3467962   5.3513825   5.3761172   5.4150551   5.4479126   5.4718024
          643         644         645         646         647         648
    1   5.5097003   5.5188796   5.5237824   5.5265768   5.5442913   5.5577962
          649         650         651         652         653         654
    1   5.5598195   5.5752186   5.5816224   5.6421790   5.6634675   5.7054957
          655         656         657         658         659         660
    1   5.8091991   5.8202607   5.8330662   5.8530529   5.8659424   5.9052258
          661         662         663         664         665         666
    1   5.9974271   6.0521874   6.0591360   6.0750195   6.1046912   6.2173736
          667         668         669         670         671         672
    1   6.2631926   6.3807502   6.4014668   6.4094614   6.4382517   6.4556618
          673         674         675         676         677         678
    1   6.4572596   6.4665922   6.4671328   6.4839058   6.4907724   6.5678675
          679         680         681         682         683         684
    1   6.6500230   6.6586161   6.7697336   6.7750080   6.7769425   6.7849771
          685         686         687         688         689         690
    1   6.8763473   6.8841392   6.9134905   6.9191795   6.9343649   6.9581248
          691         692         693         694         695         696
    1   7.0025614   7.0847513   7.0955004   7.1146358   7.1394962   7.3680784
          697         698         699         700         701         702
    1   7.3709339   7.3990944   7.4107381   7.4811438   7.5343488  22.3713425
          703         704         705         706         707         708
    1  22.5255644  22.7348515  22.7940753  22.8054222  22.8310222  22.8473759
          709         710         711         712         713         714
    1  22.9338252  22.9606424  23.0431936  23.0818699  23.1852948  23.2383077
          715         716         717         718         719         720
    1  23.4928085  23.6601323  44.0859685  44.1058235  44.1363696  44.1445442
          721
    1  44.6455655
 SCF time:   CPU 4178.53s  wall 395.00s 
 DFT Correlation          Energy =  -5.73690250383550
 DFT Exchange             Energy = -87.92235108252528
 HF Exchange              Energy = -34.31546697848337
 One-Electron             Energy = -4143.25593947835841
 SCRF wf-dependent energy Energy = -16.28883964342094
 Total Coulomb            Energy = 1883.85574625525396
 Nuclear repulsion Energy = 1449.53684671322230

************** Final PCM Free Energy Summary **************
 G_electrostatic  =      -0.09340669 hartree =     -58.61358267 kcal/mol
 G_cavitation     =       0.00000000 hartree =       0.00000000 kcal/mol
 G_dispersion     =       0.00000000 hartree =       0.00000000 kcal/mol
 G_repulsion      =       0.00000000 hartree =       0.00000000 kcal/mol
 --------------------------------------------------
 Non-electrostatic Free Energy =       0.00000000 hartree =       0.00000000 kcal/mol
 Total                         =      -0.09340669 hartree =     -58.61358267 kcal/mol
 --------------------------------------------------
 SCF Energy (H0 + V/2)                       =    -954.12690672 
 Solute Internal Energy (H0)                 =    -954.03350003 
 Total Free Energy (H0 + V/2 + non-elec)     =    -954.12690672 hartree
                                             = -598723.67342412 kcal/mol
***********************************************************

 SCF   energy =  -954.12690672
 Total energy =  -954.12690672
 MAX_CIS_SUBSPACE fits in available memory
 Direct TDDFT/TDA calculation will be performed
 Exchange:     0.1900 Hartree-Fock + 0.3500 B88 + 0.4600 muB88 + LR-HF
 Correlation:  0.1900 VWN5 + 0.8100 LYP
 Using SG-1 standard quadrature grid
 Triplet excitation energies requested
 Singlet excitation energies requested
 Adding PCM contribution to the XC response (LR-PCM)
 Optical dielectric constant (eps_inf) =  1.78
 CIS energy converged when residual is below 10e- 6
 ---------------------------------------------------
 Iter    Rts Conv    Rts Left    Ttl Dev     Max Dev
 ---------------------------------------------------
   1         0           7      0.001089    0.000178
   2         0           7      0.000386    0.000072
   3         0           7      0.000152    0.000033
   4         0           7      0.000083    0.000021
   5         1           6      0.000178    0.000149
   6         3           4      0.000068    0.000057
   7         5           2      0.000021    0.000018
   8         6           1      0.000008    0.000006
   9         6           1      0.000004    0.000002
  10         7           0      0.000002    0.000001    Roots Converged
 ---------------------------------------------------
 Triplets done: starting singlet calculation
 ---------------------------------------------------
 Iter    Rts Conv    Rts Left    Ttl Dev     Max Dev
 ---------------------------------------------------
  11         0           7      0.002792    0.000516
  12         0           7      0.000739    0.000144
  13         0           7      0.000350    0.000077
  14         0           7      0.000199    0.000053
  15         0           7      0.000129    0.000049
  16         1           6      0.000097    0.000048
  17         3           4      0.000051    0.000026
  18         3           4      0.000028    0.000014
  19         5           2      0.000015    0.000007
  20         5           2      0.000009    0.000004
  21         5           2      0.000005    0.000002
  22         7           0      0.000003    0.000001    Roots Converged
 ---------------------------------------------------
 
 ---------------------------------------------------
         TDDFT/TDA Excitation Energies              
 ---------------------------------------------------

 Excited state   1: excitation energy (eV) =       1.8731
 Total energy for state   1:                  -954.05807020 au
    Multiplicity: Triplet
    Trans. Mom.:  0.0000 X   0.0000 Y   0.0000 Z
    Strength   :     0.0000000000
    D(   66) --> V(    1) amplitude =  0.1641
    D(   67) --> V(    1) amplitude = -0.0940
    D(   69) --> V(    1) amplitude =  0.1009
    D(   70) --> V(    1) amplitude =  0.9589

 Excited state   2: excitation energy (eV) =       2.8774
 Total energy for state   2:                  -954.02116593 au
    Multiplicity: Triplet
    Trans. Mom.:  0.0000 X   0.0000 Y   0.0000 Z
    Strength   :     0.0000000000
    D(   65) --> V(    1) amplitude =  0.0943
    D(   67) --> V(    4) amplitude = -0.1203
    D(   69) --> V(    1) amplitude =  0.9160
    D(   69) --> V(    9) amplitude =  0.0724
    D(   70) --> V(    1) amplitude = -0.1044
    D(   70) --> V(    2) amplitude = -0.2635
    D(   70) --> V(    4) amplitude = -0.1172

 Excited state   3: excitation energy (eV) =       2.9554
 Total energy for state   3:                  -954.01829766 au
    Multiplicity: Singlet
    Trans. Mom.: -2.7815 X  -2.1940 Y   0.2191 Z
    Strength   :     0.9122187790
    D(   69) --> V(    1) amplitude =  0.1717
    D(   70) --> V(    1) amplitude =  0.9649

 Excited state   4: excitation energy (eV) =       3.5767
 Total energy for state   4:                  -953.99546614 au
    Multiplicity: Triplet
    Trans. Mom.:  0.0000 X   0.0000 Y   0.0000 Z
    Strength   :     0.0000000000
    D(   63) --> V(    1) amplitude = -0.1357
    D(   66) --> V(    1) amplitude = -0.1054
    D(   67) --> V(    1) amplitude =  0.8308
    D(   67) --> V(    9) amplitude =  0.0779
    D(   69) --> V(    1) amplitude =  0.1193
    D(   69) --> V(    2) amplitude = -0.1704
    D(   69) --> V(    4) amplitude = -0.2282
    D(   70) --> V(    1) amplitude =  0.0742
    D(   70) --> V(    2) amplitude =  0.3288
    D(   70) --> V(    9) amplitude =  0.1168

 Excited state   5: excitation energy (eV) =       3.6492
 Total energy for state   5:                  -953.99280093 au
    Multiplicity: Singlet
    Trans. Mom.:  1.3049 X   0.9343 Y   0.0282 Z
    Strength   :     0.2303464030
    D(   66) --> V(    1) amplitude = -0.0845
    D(   67) --> V(    1) amplitude =  0.1706
    D(   69) --> V(    1) amplitude =  0.9407
    D(   70) --> V(    1) amplitude = -0.1705
    D(   70) --> V(    2) amplitude = -0.1242

 Excited state   6: excitation energy (eV) =       3.8241
 Total energy for state   6:                  -953.98637204 au
    Multiplicity: Triplet
    Trans. Mom.:  0.0000 X   0.0000 Y   0.0000 Z
    Strength   :     0.0000000000
    D(   68) --> V(    1) amplitude =  0.9191
    D(   68) --> V(    2) amplitude =  0.2607
    D(   68) --> V(    3) amplitude = -0.1087
    D(   68) --> V(    4) amplitude =  0.1527
    D(   68) --> V(    8) amplitude =  0.0724
    D(   68) --> V(    9) amplitude =  0.1300

 Excited state   7: excitation energy (eV) =       3.9025
 Total energy for state   7:                  -953.98349102 au
    Multiplicity: Triplet
    Trans. Mom.:  0.0000 X   0.0000 Y   0.0000 Z
    Strength   :     0.0000000000
    D(   66) --> V(    1) amplitude =  0.2545
    D(   66) --> V(   25) amplitude =  0.0867
    D(   67) --> V(    1) amplitude = -0.2170
    D(   67) --> V(    2) amplitude = -0.2164
    D(   69) --> V(    1) amplitude =  0.2101
    D(   69) --> V(    2) amplitude =  0.2481
    D(   69) --> V(    9) amplitude = -0.0832
    D(   70) --> V(    2) amplitude =  0.7859
    D(   70) --> V(    8) amplitude = -0.0875
    D(   70) --> V(    9) amplitude = -0.1583

 Excited state   8: excitation energy (eV) =       4.0970
 Total energy for state   8:                  -953.97634497 au
    Multiplicity: Triplet
    Trans. Mom.:  0.0000 X   0.0000 Y   0.0000 Z
    Strength   :     0.0000000000
    D(   55) --> V(    1) amplitude =  0.1114
    D(   64) --> V(    1) amplitude =  0.0783
    D(   65) --> V(    1) amplitude =  0.2649
    D(   66) --> V(    1) amplitude =  0.7735
    D(   66) --> V(    2) amplitude = -0.1509
    D(   67) --> V(    1) amplitude =  0.2478
    D(   67) --> V(    2) amplitude = -0.0798
    D(   67) --> V(    4) amplitude = -0.0750
    D(   69) --> V(    1) amplitude = -0.1019
    D(   69) --> V(    4) amplitude =  0.1546
    D(   70) --> V(    1) amplitude = -0.0849
    D(   70) --> V(    2) amplitude = -0.2015
    D(   70) --> V(    4) amplitude =  0.1369
    D(   70) --> V(    8) amplitude = -0.1068
    D(   70) --> V(    9) amplitude = -0.1920

 Excited state   9: excitation energy (eV) =       4.3313
 Total energy for state   9:                  -953.96773502 au
    Multiplicity: Triplet
    Trans. Mom.:  0.0000 X   0.0000 Y   0.0000 Z
    Strength   :     0.0000000000
    D(   65) --> V(    1) amplitude = -0.1274
    D(   65) --> V(    2) amplitude =  0.0805
    D(   66) --> V(    1) amplitude =  0.0889
    D(   66) --> V(    2) amplitude = -0.0933
    D(   66) --> V(    4) amplitude =  0.1032
    D(   67) --> V(    1) amplitude =  0.0727
    D(   67) --> V(    2) amplitude =  0.1519
    D(   67) --> V(    4) amplitude = -0.2360
    D(   68) --> V(    3) amplitude = -0.1746
    D(   69) --> V(    1) amplitude = -0.1226
    D(   69) --> V(    2) amplitude =  0.5495
    D(   69) --> V(    3) amplitude =  0.1268
    D(   69) --> V(    4) amplitude = -0.5190
    D(   69) --> V(    9) amplitude =  0.1086
    D(   69) --> V(   25) amplitude = -0.0776
    D(   70) --> V(    2) amplitude = -0.0757
    D(   70) --> V(    4) amplitude = -0.3784

 Excited state  10: excitation energy (eV) =       4.3708
 Total energy for state  10:                  -953.96628430 au
    Multiplicity: Singlet
    Trans. Mom.: -0.2036 X  -0.0884 Y  -0.3083 Z
    Strength   :     0.0154488716
    D(   67) --> V(    3) amplitude = -0.0803
    D(   68) --> V(    1) amplitude =  0.9332
    D(   68) --> V(    2) amplitude =  0.1478
    D(   68) --> V(    4) amplitude =  0.0975
    D(   69) --> V(    3) amplitude =  0.1309
    D(   70) --> V(    3) amplitude = -0.2308

 Excited state  11: excitation energy (eV) =       4.6308
 Total energy for state  11:                  -953.95672752 au
    Multiplicity: Singlet
    Trans. Mom.: -0.4504 X  -0.5352 Y   0.3629 Z
    Strength   :     0.0704562452
    D(   63) --> V(    1) amplitude = -0.0829
    D(   67) --> V(    1) amplitude =  0.8003
    D(   69) --> V(    1) amplitude = -0.2188
    D(   69) --> V(    2) amplitude = -0.3308
    D(   69) --> V(    9) amplitude =  0.0840
    D(   70) --> V(    2) amplitude = -0.3525
    D(   70) --> V(    4) amplitude =  0.1561

 Excited state  12: excitation energy (eV) =       5.1854
 Total energy for state  12:                  -953.93634570 au
    Multiplicity: Singlet
    Trans. Mom.:  0.4912 X  -0.3548 Y   1.0588 Z
    Strength   :     0.1890807202
    D(   65) --> V(    1) amplitude = -0.0973
    D(   66) --> V(    1) amplitude = -0.4277
    D(   67) --> V(    1) amplitude =  0.3941
    D(   67) --> V(    4) amplitude =  0.1371
    D(   68) --> V(    3) amplitude =  0.1137
    D(   69) --> V(    2) amplitude =  0.0821
    D(   69) --> V(    9) amplitude = -0.1013
    D(   70) --> V(    2) amplitude =  0.7115
    D(   70) --> V(    3) amplitude =  0.1048
    D(   70) --> V(    4) amplitude = -0.1886

 Excited state  13: excitation energy (eV) =       5.4619
 Total energy for state  13:                  -953.92618496 au
    Multiplicity: Singlet
    Trans. Mom.: -0.4727 X  -0.6058 Y   0.0541 Z
    Strength   :     0.0793982726
    D(   66) --> V(    1) amplitude =  0.4851
    D(   67) --> V(    3) amplitude =  0.1450
    D(   68) --> V(    1) amplitude =  0.2323
    D(   68) --> V(    2) amplitude = -0.1332
    D(   68) --> V(    4) amplitude = -0.0720
    D(   68) --> V(    9) amplitude = -0.1179
    D(   69) --> V(    2) amplitude = -0.3492
    D(   69) --> V(    3) amplitude = -0.2137
    D(   70) --> V(    2) amplitude =  0.3379
    D(   70) --> V(    3) amplitude =  0.4430
    D(   70) --> V(    4) amplitude =  0.3479

 Excited state  14: excitation energy (eV) =       5.5219
 Total energy for state  14:                  -953.92398240 au
    Multiplicity: Singlet
    Trans. Mom.:  0.6248 X   0.4004 Y  -0.1001 Z
    Strength   :     0.0758537594
    D(   65) --> V(    1) amplitude =  0.0805
    D(   66) --> V(    1) amplitude =  0.1978
    D(   67) --> V(    1) amplitude =  0.2385
    D(   67) --> V(    2) amplitude =  0.1158
    D(   67) --> V(    4) amplitude =  0.0912
    D(   67) --> V(    9) amplitude = -0.1228
    D(   68) --> V(    1) amplitude =  0.1483
    D(   68) --> V(    2) amplitude = -0.1180
    D(   68) --> V(    9) amplitude = -0.0887
    D(   69) --> V(    2) amplitude =  0.5081
    D(   69) --> V(    3) amplitude = -0.1560
    D(   69) --> V(    4) amplitude = -0.1303
    D(   70) --> V(    2) amplitude = -0.2746
    D(   70) --> V(    3) amplitude =  0.5052
    D(   70) --> V(    4) amplitude = -0.3690
 
 ---------------------------------------------------

 Direct TDDFT calculation will be performed
 Exchange:     0.1900 Hartree-Fock + 0.3500 B88 + 0.4600 muB88 + LR-HF
 Correlation:  0.1900 VWN5 + 0.8100 LYP
 Using SG-1 standard quadrature grid
 ---------------------------------------------------
 Iter    Rts Conv    Rts Left    Ttl Dev     Max Dev
 ---------------------------------------------------
   1         0           7      0.001102    0.000182
   2         0           7      0.000350    0.000058
   3         0           7      0.000191    0.000039
   4         0           7      0.000110    0.000026
   5         0           7      0.000066    0.000020
   6         0           7      0.000031    0.000009
   7         2           5      0.000016    0.000005
   8         6           1      0.000005    0.000001
   9         6           1      0.000004    0.000001
  10         7           0      0.000003    0.000001    Roots Converged
 ---------------------------------------------------
 Triplets done: starting singlet calculation
 ---------------------------------------------------
 Iter    Rts Conv    Rts Left    Ttl Dev     Max Dev
 ---------------------------------------------------
  11         0           7      0.001562    0.000290
  12         0           7      0.000679    0.000244
  13         0           7      0.000289    0.000089
  14         0           7      0.000162    0.000039
  15         0           7      0.000128    0.000042
  16         0           7      0.000074    0.000037
  17         0           7      0.000061    0.000030
  18         3           4      0.000118    0.000085
  19         4           3      0.000036    0.000024
  20         4           3      0.000021    0.000014
  21         5           2      0.000014    0.000008
  22         5           2      0.000010    0.000006
  23         6           1      0.000006    0.000002
  24         6           1      0.000006    0.000002
  25         7           0      0.000005    0.000001    Roots Converged
 ---------------------------------------------------
 
 ---------------------------------------------------
             TDDFT Excitation Energies              
 ---------------------------------------------------

 Excited state   1: excitation energy (eV) =        1.6434
 Total energy for state   1:                  -954.06651253 au
    Multiplicity: Triplet 
    Trans. Mom.:  0.0000 X   0.0000 Y   0.0000 Z
    Strength   :     0.0000000000
    X: D(   66) --> V(    1) amplitude =  0.1871
    X: D(   66) --> V(    9) amplitude = -0.0795
    X: D(   67) --> V(    1) amplitude = -0.1008
    X: D(   67) --> V(    2) amplitude =  0.0836
    X: D(   69) --> V(    1) amplitude =  0.0996
    X: D(   69) --> V(    4) amplitude = -0.0992
    X: D(   70) --> V(    1) amplitude =  0.9722
    Y: D(   70) --> V(    1) amplitude =  0.1924

 Excited state   2: excitation energy (eV) =        2.7029
 Total energy for state   2:                  -954.02757530 au
    Multiplicity: Triplet 
    Trans. Mom.:  0.0000 X   0.0000 Y   0.0000 Z
    Strength   :     0.0000000000
    X: D(   65) --> V(    1) amplitude =  0.1100
    X: D(   67) --> V(    4) amplitude = -0.1537
    X: D(   68) --> V(    3) amplitude = -0.1121
    X: D(   69) --> V(    1) amplitude =  0.8737
    Y: D(   69) --> V(    1) amplitude =  0.0821
    X: D(   69) --> V(    9) amplitude =  0.1006
    X: D(   70) --> V(    1) amplitude = -0.1004
    X: D(   70) --> V(    2) amplitude = -0.3516
    Y: D(   70) --> V(    2) amplitude = -0.0769
    X: D(   70) --> V(    4) amplitude = -0.1376

 Excited state   3: excitation energy (eV) =        2.7878
 Total energy for state   3:                  -954.02445527 au
    Multiplicity: Singlet 
    Trans. Mom.: -2.5456 X  -1.9954 Y   0.1790 Z
    Strength   :     0.7167386552
[...]
      XZZZ     -11.1374   YZZZ      -8.6738   ZZZZ   -1193.3736
    5th-Order Moments (Debye-Ang^4)
       500   13138.2119    410   -7824.3432    320    -368.5149
       230   -3995.0563    140   -4842.6746    050  -36998.3731
       401     523.8317    311     508.7013    221    1400.8497
       131    1443.1533    041    2501.6768    302    2982.0948
       212   -1673.0820    122   -1292.1220    032   -5029.5086
       203     379.9780    113    -179.8302    023    -256.4745
       104    2147.4938    014   -1778.6837    005   -1915.5430
 -----------------------------------------------------------------
 -----------------------------------------------------------------
                 RPA Excited-State Multipoles, State    4   
                  LMN = < X^L Y^M Z^N >
 -----------------------------------------------------------------
    Charge (ESU x 10^10)
                 4.8032
    Dipole Moment (Debye)
         X     -12.4288      Y       3.3257      Z       4.9311
       Tot      13.7786
    Quadrupole Moments (Debye-Ang)
        XX     -16.3043     XY      38.6960     YY     -76.7225
        XZ       3.1717     YZ       6.1278     ZZ     -92.5060
    Octopole Moments (Debye-Ang^2)
       XXX     -59.5903    XXY    -253.1015    XYY     228.3588
       YYY    -527.2474    XXZ      -8.0331    XYZ      51.4162
       YYZ      13.0523    XZZ     112.8868    YZZ    -217.1289
       ZZZ     -69.2820
    Hexadecapole Moments (Debye-Ang^3)
      XXXX   -2578.3183   XXXY      78.9962   XXYY   -1205.7632
      XYYY     -71.1521   YYYY   -4750.9020   XXXZ     114.3904
      XXYZ     124.4075   XYYZ     227.7744   YYYZ     312.3737
      XXZZ   -1091.3348   XYZZ    -230.4947   YYZZ   -1119.7259
      XZZZ     -25.7546   YZZZ     -27.6408   ZZZZ   -1227.6727
    5th-Order Moments (Debye-Ang^4)
       500   11784.5194    410   -8108.8845    320    -345.9201
       230   -3989.7918    140   -4836.3224    050  -36972.4280
       401     826.7533    311     440.1234    221    1403.0982
       131    1408.2230    041    2456.7553    302    3077.9657
       212   -1686.1636    122   -1286.5201    032   -5049.4241
       203     410.0363    113    -197.2660    023    -296.6053
       104    2141.1653    014   -1840.5207    005   -1995.0129
 -----------------------------------------------------------------
 -----------------------------------------------------------------
                 RPA Excited-State Multipoles, State    5   
                  LMN = < X^L Y^M Z^N >
 -----------------------------------------------------------------
    Charge (ESU x 10^10)
                 4.8032
    Dipole Moment (Debye)
         X     -13.4938      Y       3.5345      Z       3.3573
       Tot      14.3474
    Quadrupole Moments (Debye-Ang)
        XX     -10.0166     XY      39.8870     YY     -73.0685
        XZ       3.8202     YZ       2.6337     ZZ     -94.0378
    Octopole Moments (Debye-Ang^2)
       XXX     -67.7076    XXY    -244.0078    XYY     233.1042
       YYY    -509.6617    XXZ       0.3666    XYZ      60.4717
       YYZ       9.6703    XZZ     112.8239    YZZ    -220.2319
       ZZZ     -74.6912
    Hexadecapole Moments (Debye-Ang^3)
      XXXX   -2586.2459   XXXY      79.2142   XXYY   -1159.5072
      XYYY     -27.9875   YYYY   -4655.1248   XXXZ      54.3515
      XXYZ     102.7172   XYYZ     238.5870   YYYZ     307.6639
      XXZZ   -1087.8983   XYZZ    -223.1886   YYZZ   -1120.3925
      XZZZ     -27.6626   YZZZ     -38.8679   ZZZZ   -1242.4091
    5th-Order Moments (Debye-Ang^4)
       500   12161.0743    410   -8062.8163    320    -376.3171
       230   -3849.5491    140   -4616.1467    050  -36482.1923
       401    1188.4590    311     514.6223    221    1396.4610
       131    1449.8418    041    2473.3439    302    3088.9487
       212   -1703.7086    122   -1286.6799    032   -5050.9471
       203     463.4920    113    -166.9050    023    -301.6248
       104    2157.0542    014   -1862.8557    005   -2037.7027
 -----------------------------------------------------------------
 -----------------------------------------------------------------
                 RPA Excited-State Multipoles, State    6   
                  LMN = < X^L Y^M Z^N >
 -----------------------------------------------------------------
    Charge (ESU x 10^10)
                 4.8032
    Dipole Moment (Debye)
         X      -7.1102      Y       6.5897      Z       5.8119
       Tot      11.3029
    Quadrupole Moments (Debye-Ang)
        XX     -36.8983     XY      39.7816     YY     -66.5938
        XZ       3.1837     YZ       6.4034     ZZ     -88.0851
    Octopole Moments (Debye-Ang^2)
       XXX      48.5619    XXY    -239.2607    XYY     243.6341
       YYY    -481.7930    XXZ     -12.7315    XYZ      50.6016
       YYZ      10.6355    XZZ     112.3022    YZZ    -207.8320
       ZZZ     -61.9831
    Hexadecapole Moments (Debye-Ang^3)
      XXXX   -3103.6621   XXXY      34.9161   XXYY   -1210.2265
      XYYY     -32.8589   YYYY   -4566.3901   XXXZ     145.4718
      XXYZ     121.8683   XYYZ     224.1720   YYYZ     294.6151
      XXZZ   -1086.1389   XYZZ    -228.6455   YYZZ   -1092.3546
      XZZZ     -29.0223   YZZZ     -18.3575   ZZZZ   -1201.1933
    5th-Order Moments (Debye-Ang^4)
       500   14401.6434    410   -7906.7411    320    -290.7170
       230   -3958.7393    140   -4693.8575    050  -36191.8043
       401     649.7802    311     446.4587    221    1392.1937
       131    1389.1920    041    2359.1242    302    3098.6288
       212   -1661.6793    122   -1266.2957    032   -4948.5355
       203     414.3645    113    -201.2499    023    -281.8207
       104    2131.7873    014   -1793.9493    005   -1931.2913
 -----------------------------------------------------------------
 -----------------------------------------------------------------
                 RPA Excited-State Multipoles, State    7   
                  LMN = < X^L Y^M Z^N >
 -----------------------------------------------------------------
    Charge (ESU x 10^10)
                 4.8032
    Dipole Moment (Debye)
         X      -2.7601      Y      10.4504      Z       5.0829
       Tot      11.9442
    Quadrupole Moments (Debye-Ang)
        XX     -40.2272     XY      49.4001     YY     -47.4418
        XZ       6.4559     YZ       8.3998     ZZ     -88.8942
    Octopole Moments (Debye-Ang^2)
       XXX      78.6991    XXY    -235.1886    XYY     272.2649
       YYY    -399.4355    XXZ      -2.6967    XYZ      64.1943
       YYZ      27.0530    XZZ     124.9360    YZZ    -197.6089
       ZZZ     -67.6460
    Hexadecapole Moments (Debye-Ang^3)
      XXXX   -3199.1765   XXXY      59.7654   XXYY   -1207.2829
      XYYY      35.9288   YYYY   -4247.2333   XXXZ     150.1882
      XXYZ     166.0776   XYYZ     296.6022   YYYZ     399.4380
      XXZZ   -1099.5772   XYZZ    -201.5047   YYZZ   -1037.4423
      XZZZ     -21.9102   YZZZ     -18.5834   ZZZZ   -1217.1557
    5th-Order Moments (Debye-Ang^4)
       500   14816.8586    410   -8045.3098    320    -347.9493
       230   -4088.1857    140   -4678.8114    050  -35116.8912
       401     857.7278    311     538.9625    221    1586.4501
       131    1750.4162    041    2957.8908    302    3226.5817
       212   -1619.7533    122   -1150.1201    032   -4672.0412
       203     427.7955    113    -182.0586    023    -259.2156
       104    2179.4307    014   -1779.6476    005   -1985.1710
 -----------------------------------------------------------------
 -----------------------------------------------------------------
                 RPA Excited-State Multipoles, State    8   
                  LMN = < X^L Y^M Z^N >
 -----------------------------------------------------------------
    Charge (ESU x 10^10)
                 4.8032
    Dipole Moment (Debye)
         X     -11.0085      Y       2.7776      Z       7.4530
       Tot      13.5812
    Quadrupole Moments (Debye-Ang)
        XX     -32.9382     XY      30.5161     YY     -86.7184
        XZ       3.7010     YZ       9.6282     ZZ     -84.8742
    Octopole Moments (Debye-Ang^2)
       XXX       8.1063    XXY    -250.8677    XYY     206.2562
       YYY    -579.0844    XXZ     -15.3588    XYZ      51.0704
       YYZ      18.9514    XZZ     106.4785    YZZ    -207.2000
       ZZZ     -51.9705
    Hexadecapole Moments (Debye-Ang^3)
      XXXX   -2973.9693   XXXY     -24.6413   XXYY   -1286.5809
      XYYY    -211.1251   YYYY   -5045.9337   XXXZ     182.2573
      XXYZ     137.1844   XYYZ     240.3032   YYYZ     335.4704
      XXZZ   -1075.7331   XYZZ    -244.4639   YYZZ   -1111.6532
      XZZZ     -22.9621   YZZZ       2.3073   ZZZZ   -1174.0612
    5th-Order Moments (Debye-Ang^4)
       500   13476.4054    410   -7996.5637    320    -551.3422
       230   -4387.8760    140   -5611.7107    050  -38637.1468
       401     475.3603    311     452.1256    221    1433.2712
       131    1472.3579    041    2573.0190    302    3027.6807
       212   -1654.1859    122   -1306.7920    032   -5055.6330
       203     385.8183    113    -208.7577    023    -247.0863
       104    2120.2361    014   -1754.6723    005   -1854.4467
 -----------------------------------------------------------------
 -----------------------------------------------------------------
                 RPA Excited-State Multipoles, State    9   
                  LMN = < X^L Y^M Z^N >
 -----------------------------------------------------------------
    Charge (ESU x 10^10)
                 4.8032
    Dipole Moment (Debye)
         X     -10.9759      Y       3.8018      Z       5.8850
       Tot      13.0214
    Quadrupole Moments (Debye-Ang)
        XX     -28.6448     XY      34.7459     YY     -78.1065
        XZ       2.2888     YZ       5.7860     ZZ     -88.1331
    Octopole Moments (Debye-Ang^2)
       XXX       1.5363    XXY    -249.9683    XYY     216.1680
       YYY    -541.6455    XXZ      -5.1724    XYZ      57.2960
       YYZ      16.0659    XZZ     103.6154    YZZ    -214.6380
       ZZZ     -61.3476
    Hexadecapole Moments (Debye-Ang^3)
      XXXX   -2965.3615   XXXY       5.9415   XXYY   -1248.4383
      XYYY    -151.0089   YYYY   -4865.9148   XXXZ     112.8631
      XXYZ     111.5683   XYYZ     237.0570   YYYZ     325.5534
      XXZZ   -1068.7921   XYZZ    -234.2475   YYZZ   -1113.9380
      XZZZ     -41.7862   YZZZ     -23.9918   ZZZZ   -1205.0092
    5th-Order Moments (Debye-Ang^4)
       500   13810.6467    410   -7978.8997    320    -482.3463
       230   -4215.3840    140   -5294.8600    050  -37751.0880
       401     835.4763    311     516.8246    221    1423.0555
       131    1466.4432    041    2545.7726    302    3011.9776
       212   -1691.2559    122   -1308.1631    032   -5051.9136
       203     462.0592    113    -187.4792    023    -274.1740
       104    2090.5294    014   -1829.4782    005   -1936.3602
 -----------------------------------------------------------------
 -----------------------------------------------------------------
                 RPA Excited-State Multipoles, State   10   
                  LMN = < X^L Y^M Z^N >
 -----------------------------------------------------------------
    Charge (ESU x 10^10)
                 4.8032
    Dipole Moment (Debye)
         X      -0.4326      Y      12.6222      Z       4.0923
       Tot      13.2761
    Quadrupole Moments (Debye-Ang)
        XX     -42.8523     XY      54.2922     YY     -36.6857
        XZ       6.7229     YZ       6.3659     ZZ     -89.8821
    Octopole Moments (Debye-Ang^2)
       XXX      96.9803    XXY    -231.1201    XYY     291.0784
       YYY    -348.5070    XXZ      -4.0882    XYZ      61.9902
       YYZ      18.3576    XZZ     130.6191    YZZ    -194.9318
       ZZZ     -71.6609
    Hexadecapole Moments (Debye-Ang^3)
      XXXX   -3253.6853   XXXY      84.1473   XXYY   -1180.5404
      XYYY     116.5856   YYYY   -4007.8653   XXXZ     140.4226
      XXYZ     160.8243   XYYZ     285.1913   YYYZ     359.9763
      XXZZ   -1110.7560   XYZZ    -194.3115   YYZZ   -1024.0796
      XZZZ     -17.1621   YZZZ     -22.9306   ZZZZ   -1226.6659
    5th-Order Moments (Debye-Ang^4)
       500   15112.8637    410   -8046.3585    320    -257.8295
       230   -3939.4060    140   -4296.8780    050  -33962.9946
       401     898.4058    311     514.1989    221    1552.8625
       131    1685.0264    041    2760.6955    302    3279.4462
       212   -1616.3692    122   -1124.9580    032   -4609.1995
       203     419.3519    113    -182.2358    023    -273.9283
       104    2207.8481    014   -1778.3540    005   -2015.1060
 -----------------------------------------------------------------
 -----------------------------------------------------------------
                 RPA Excited-State Multipoles, State   11   
                  LMN = < X^L Y^M Z^N >
 -----------------------------------------------------------------
    Charge (ESU x 10^10)
                 4.8032
    Dipole Moment (Debye)
         X      -9.4914      Y       5.9895      Z       4.2130
       Tot      11.9879
    Quadrupole Moments (Debye-Ang)
        XX     -17.8479     XY      44.9055     YY     -63.5619
        XZ       6.4340     YZ       5.5301     ZZ     -91.3886
    Octopole Moments (Debye-Ang^2)
       XXX     -29.7416    XXY    -229.4485    XYY     265.6291
       YYY    -454.5925    XXZ     -22.7593    XYZ      53.4992
       YYZ      11.3981    XZZ     111.2437    YZZ    -214.1177
       ZZZ     -71.5031
    Hexadecapole Moments (Debye-Ang^3)
      XXXX   -2624.0410   XXXY     104.2555   XXYY   -1112.9116
      XYYY     117.3022   YYYY   -4359.4714   XXXZ     183.9582
      XXYZ     111.6640   XYYZ     226.1242   YYYZ     302.8378
      XXZZ   -1070.1561   XYZZ    -226.1016   YYZZ   -1107.5705
      XZZZ     -11.8053   YZZZ     -26.8745   ZZZZ   -1223.0197
    5th-Order Moments (Debye-Ang^4)
       500   12235.9219    410   -7768.8544    320     -25.0707
       230   -3439.8539    140   -3787.4074    050  -34795.5907
       401     446.4789    311     466.0250    221    1367.9269
       131    1376.6025    041    2392.5765    302    2986.9067
       212   -1664.3593    122   -1261.0374    032   -4990.7191
       203     356.7987    113    -186.3506    023    -291.1948
       104    2135.9748    014   -1828.9046    005   -2005.9021
 -----------------------------------------------------------------
 -----------------------------------------------------------------
                 RPA Excited-State Multipoles, State   12   
                  LMN = < X^L Y^M Z^N >
 -----------------------------------------------------------------
    Charge (ESU x 10^10)
                 4.8032
    Dipole Moment (Debye)
         X      -8.0890      Y       5.3385      Z       6.6742
       Tot      11.7676
    Quadrupole Moments (Debye-Ang)
        XX     -34.8246     XY      39.2101     YY     -71.6379
        XZ       2.3641     YZ       7.1336     ZZ     -87.0251
    Octopole Moments (Debye-Ang^2)
       XXX      38.4369    XXY    -242.0127    XYY     240.3412
       YYY    -503.3781    XXZ      -9.7548    XYZ      52.4243
       YYZ      13.9058    XZZ     108.0680    YZZ    -210.9460
       ZZZ     -56.9248
    Hexadecapole Moments (Debye-Ang^3)
      XXXX   -3059.4936   XXXY      49.9750   XXYY   -1202.5493
      XYYY     -32.0296   YYYY   -4648.4704   XXXZ     134.8364
      XXYZ     114.1107   XYYZ     222.5832   YYYZ     304.0934
      XXZZ   -1075.7154   XYZZ    -231.3994   YYZZ   -1108.1140
      XZZZ     -31.6538   YZZZ     -14.1798   ZZZZ   -1191.7583
    5th-Order Moments (Debye-Ang^4)
       500   14291.2988    410   -7891.9506    320    -225.3623
       230   -3879.1916    140   -4617.7354    050  -36476.0783
       401     669.6275    311     468.5596    221    1392.8098
       131    1390.3203    041    2405.5082    302    3033.9331
       212   -1683.5977    122   -1292.5614    032   -5031.4222
       203     430.3347    113    -189.6280    023    -269.3622
       104    2118.0390    014   -1799.0875    005   -1897.2310
 -----------------------------------------------------------------
 -----------------------------------------------------------------
                 RPA Excited-State Multipoles, State   13   
                  LMN = < X^L Y^M Z^N >
 -----------------------------------------------------------------
    Charge (ESU x 10^10)
                 4.8032
    Dipole Moment (Debye)
         X     -10.4786      Y       2.8178      Z       7.9377
       Tot      13.4442
    Quadrupole Moments (Debye-Ang)
        XX     -30.6288     XY      32.7728     YY     -86.2180
        XZ       6.2003     YZ      10.8230     ZZ     -82.7435
    Octopole Moments (Debye-Ang^2)
       XXX       0.8745    XXY    -245.0157    XYY     218.4144
       YYY    -570.9327    XXZ     -22.9033    XYZ      52.3612
       YYZ      20.1175    XZZ     108.2084    YZZ    -206.1302
       ZZZ     -42.8706
    Hexadecapole Moments (Debye-Ang^3)
      XXXX   -2892.3878   XXXY       1.6825   XXYY   -1243.8931
      XYYY    -135.7744   YYYY   -4972.5045   XXXZ     206.7797
      XXYZ     128.3785   XYYZ     237.6822   YYYZ     333.3848
      XXZZ   -1077.3443   XYZZ    -244.4187   YYZZ   -1120.5610
      XZZZ     -10.1008   YZZZ      17.4211   ZZZZ   -1145.2001
    5th-Order Moments (Debye-Ang^4)
       500   13180.0954    410   -7884.5229    320    -379.1732
       230   -4105.3654    140   -5131.0006    050  -38076.7196
       401     346.4717    311     450.0977    221    1399.5830
       131    1438.1861    041    2539.1513    302    3012.8051
       212   -1664.1676    122   -1314.8247    032   -5114.5515
       203     362.4445    113    -193.9442    023    -224.6719
       104    2140.3067    014   -1718.6274    005   -1754.6832
 -----------------------------------------------------------------
 -----------------------------------------------------------------
                 RPA Excited-State Multipoles, State   14   
                  LMN = < X^L Y^M Z^N >
 -----------------------------------------------------------------
    Charge (ESU x 10^10)
                 4.8032
    Dipole Moment (Debye)
         X     -11.2535      Y       3.0629      Z       6.8065
       Tot      13.5038
    Quadrupole Moments (Debye-Ang)
        XX     -26.4475     XY      35.8905     YY     -81.1524
        XZ       2.1210     YZ       7.2704     ZZ     -88.6459
    Octopole Moments (Debye-Ang^2)
       XXX      -1.5103    XXY    -236.6220    XYY     237.0354
       YYY    -538.0198    XXZ     -17.3230    XYZ      45.9434
       YYZ       9.8755    XZZ     102.9836    YZZ    -220.0543
       ZZZ     -56.1286
    Hexadecapole Moments (Debye-Ang^3)
      XXXX   -2851.3430   XXXY      57.5392   XXYY   -1164.0235
      XYYY      -1.7524   YYYY   -4756.2596   XXXZ     147.4463
      XXYZ     105.8760   XYYZ     201.2037   YYYZ     281.5533
      XXZZ   -1081.9116   XYZZ    -252.6133   YYZZ   -1156.0060
      XZZZ     -29.3074   YZZZ     -11.6024   ZZZZ   -1196.0176
    5th-Order Moments (Debye-Ang^4)
       500   13257.0833    410   -7792.1869    320    -106.4483
       230   -3609.2539    140   -4265.8501    050  -36691.2968
       401     520.2560    311     383.9342    221    1295.3814
       131    1251.8912    041    2252.7492    302    3012.2095
       212   -1694.1023    122   -1356.5504    032   -5246.9192
       203     402.7860    113    -205.5501    023    -278.6118
       104    2099.7452    014   -1828.3923    005   -1890.1493
 -----------------------------------------------------------------
 Total job time:  3562.38s(wall), 46312.06s(cpu) 
 Thu Jan 30 22:41:44 2025

        *************************************************************
        *                                                           *
        *  Thank you very much for using Q-Chem.  Have a nice day.  *
        *                                                           *
        *************************************************************


