
Running Job 1 of 1 Pelargonidin_Q3_tddft_full.in
qchem Pelargonidin_Q3_tddft_full.in_3256199.0 /data/brussel/103/vsc10365/activedata/TDDFTAnthocyanidines/qchem3256199/ 1
/apps/brussel/RL8/skylake/software/Q-Chem/6.2.0/exe/qcprog.exe_s Pelargonidin_Q3_tddft_full.in_3256199.0 /data/brussel/103/vsc10365/activedata/TDDFTAnthocyanidines/qchem3256199/
                  Welcome to Q-Chem
     A Quantum Leap Into The Future Of Chemistry


 Q-Chem 6.2, Q-Chem, Inc., Pleasanton, CA (2024)

 License issued to: SRG Prof. Dr. Frank De Proft, Vrije Universiteit Brussel

 E. Epifanovsky,  A. T. B. Gilbert,  Xintian Feng,  Joonho Lee,  Yuezhi Mao,  
 N. Mardirossian,  P. Pokhilko,  A. White,  M. Wormit,  M. P. Coons,  
 A. L. Dempwolff,  Zhengting Gan,  D. Hait,  P. R. Horn,  L. D. Jacobson,  
 I. Kaliman,  J. Kussmann,  A. W. Lange,  Ka Un Lao,  D. S. Levine,  Jie Liu,  
 S. C. McKenzie,  A. F. Morrison,  K. D. Nanda,  F. Plasser,  D. R. Rehn,  
 M. L. Vidal,  Zhi-Qiang You,  Ying Zhu,  Huseyin Aksu,  B. Alam,  
 B. Albrecht,  A. Aldossary,  E. Alguire,  J. H. Andersen,  
 J. E. Arias-Martinez,  V. Athavale,  D. Barton,  K. Begam,  A. Behn,  
 N. Bellonzi,  Y. A. Bernard,  E. J. Berquist,  H. Burton,  A. Carreras,  
 K. Carter-Fenk,  Mathew Chow,  Romit Chakraborty,  Chandrima Chakravarty,  
 Junhan Chen,  A. D. Chien,  K. D. Closser,  V. Cofer-Shabica,  L. Cunha,  
 S. Dasgupta,  Jia Deng,  Joseph Dickinson,  M. de Wergifosse,  
 M. Diedenhofen,  Hainam Do,  Wenjie Dou,  S. Ehlert,  Po-Tung Fang,  
 S. Fatehi,  Qingguo Feng,  Jonathan Fetherolf,  T. Friedhoff,  
 Thomas Froitzheim,  Sarai Folkestad,  B. Ganoe,  J. Gayvert,  Qinghui Ge,  
 G. Gidofalvi,  M. Gimferrer,  M. Goldey,  Montgomery Gray,  J. Gomes,  
 C. Gonzalez-Espinoza,  S. Gulania,  A. Gunina,  J. A. Gyamfi,  
 M. W. D. Hanson-Heine,  P. H. P. Harbach,  A. W. Hauser,  M. F. Herbst,  
 M. Hernandez Vera,  M. Hodecker,  Z. C. Holden,  S. Houck,  Xunkun Huang,  
 Kerwin Hui,  B. C. Huynh,  K. Ikeda,  M. Ivanov,  Nayanthara K. Jayadev,  
 Hyunjun Ji,  Zuxin Jin,  Hanjie Jiang,  Subrata Jana,  B. Kaduk,  
 S. Kaehler,  R. Kang,  K. Khistyaev,  Jaehoon Kim,  Yongbin Kim,  
 P. Klunzinger,  Z. Koczor-Benda,  Joong Hoon Koh,  D. Kosenkov,  
 Saikiran Kotaru,  L. Koulias,  T. Kowalczyk,  C. M. Krauter,  K. Kue,  
 A. Kunitsa,  T. Kus,  A. Landau,  K. V. Lawler,  D. Lefrancois,  S. Lehtola,  
 Rain Li,  Shaozhi Li,  Tao E. Li,  Yi-Pei Li,  Jiashu Liang,  M. Liebenthal,  
 Hung-Hsuan Lin,  You-Sheng Lin,  Fenglai Liu,  Kuan-Yu Liu,  Xiao Liu,  
 M. Loipersberger,  A. Luenser,  C. Malbon,  Aniket Mandal,  Manisha,  
 A. Manjanath,  P. Manohar,  E. Mansoor,  S. F. Manzer,  Shan-Ping Mao,  
 A. V. Marenich,  T. Markovich,  S. Mason,  F. Matz,  S. A. Maurer,  
 Samuel May,  Alexandra McIsaac,  P. F. McLaughlin,  M. F. S. J. Menger,  
 J.-M. Mewes,  S. A. Mewes,  P. Morgante,  Mohammad Mostafanejad,  
 Madhubani Mukherjee,  J. W. Mullinax,  Quyen Nguyen,  Avik Kumar Ojha,  
 K. J. Oosterbaan,  Eno Paenurk,  Xiaoliang Pan,  G. Paran,  V. Parravicini,  
 Alexander C. Paul,  Suranjan K. Paul,  F. Pavosevic,  Zheng Pei,  S. Prager,  
 E. I. Proynov,  E. Ramos,  B. Rana,  A. E. Rask,  A. Rettig,  R. M. Richard,  
 F. Rob,  E. Rossomme,  T. Scheele,  M. Scheurer,  M. Schneider,  
 P. E. Schneider,  Tim K. Schramm,  N. Sergueev,  S. M. Sharada,  
 Hengyuan Shen,  W. Skomorowski,  D. W. Small,  C. J. Stein,  
 Alistair J. Sterling,  Yingli Su,  Yu-Chuan Su,  E. J. Sundstrom,  
 J. Talbot,  Zhen Tao,  J. Thirman,  Hung-Yi Tsai,  T. Tsuchimochi,  
 N. M. Tubman,  C. Utku,  S. P. Veccham,  O. Vydrov,  Rahel Weiss,  
 J. Wenzel,  Jonathan Wong,  J. Witte,  H. Wu,  Yanze Wu,  A. Yamada,  
 Chou-Hsun Yang,  Kun Yao,  S. Yeganeh,  S. R. Yost,  Qi Yu,  A. Zech,  
 F. Zeller,  Chongxiao Zhao,  Igor Ying Zhang,  Xing Zhang,  Yu Zhang,  
 D. Zuev,  A. Aspuru-Guzik,  A. T. Bell,  N. A. Besley,  K. B. Bravaya,  
 B. R. Brooks,  D. Casanova,  Jeng-Da Chai,  Hsing-Ta Chen,  S. Coriani,  
 C. J. Cramer,  A. E. DePrince, III,  R. A. DiStasio Jr.,  A. Dreuw,  
 B. D. Dunietz,  T. R. Furlani,  W. A. Goddard III,  S. Grimme,  
 S. Hammes-Schiffer,  T. Head-Gordon,  W. J. Hehre,  Chao-Ping Hsu,  
 T.-C. Jagau,  Yousung Jung,  A. Klamt,  Jing Kong,  D. S. Lambrecht,  
 Xiangyuan Li,  WanZhen Liang,  N. J. Mayhall,  C. W. McCurdy,  J. B. Neaton,  
 T. Neudecker,  C. Ochsenfeld,  J. A. Parkhill,  R. Peverati,  
 V. A. Rassolov,  Haisheng Ren,  Yihan Shao,  L. V. Slipchenko,  
 R. P. Steele,  J. E. Subotnik,  A. J. W. Thom,  A. Tkatchenko,  
 D. G. Truhlar,  T. Van Voorhis,  Fan Wang,  T. A. Wesolowski,  K. B. Whaley,  
 H. L. Woodcock III,  P. M. Zimmerman,  S. Faraji,  P. M. W. Gill,  
 M. Head-Gordon,  J. M. Herbert,  A. I. Krylov

 Contributors to earlier versions of Q-Chem not listed above: 
 R. D. Adamson,  B. Austin,  R. Baer,  J. Baker,  G. J. O. Beran,  
 K. Brandhorst,  S. T. Brown,  E. F. C. Byrd,  Arup K. Chakraborty,  
 G. K. L. Chan,  Chun-Min Chang,  Yunqing Chen,  C.-L. Cheng,  
 Siu Hung Chien,  D. M. Chipman,  D. L. Crittenden,  H. Dachsel,  
 R. J. Doerksen,  A. D. Dutoi,  R. G. Edgar,  J. Fosso-Tande,  
 L. Fusti-Molnar,  D. Ghosh,  A. Ghysels,  A. Golubeva-Zadorozhnaya,  
 J. Gonthier,  M. S. Gordon,  S. R. Gwaltney,  G. Hawkins,  J. E. Herr,  
 A. Heyden,  S. Hirata,  E. G. Hohenstein,  G. Kedziora,  F. J. Keil,  
 C. Kelley,  Jihan Kim,  R. A. King,  R. Z. Khaliullin,  P. P. Korambath,  
 W. Kurlancheek,  A. Laurent,  A. M. Lee,  M. S. Lee,  S. V. Levchenko,  
 Ching Yeh Lin,  D. Liotard,  E. Livshits,  R. C. Lochan,  I. Lotan,  
 L. A. Martinez-Martinez,  P. E. Maslen,  N. Nair,  D. P. O'Neill,  
 D. Neuhauser,  E. Neuscamman,  C. M. Oana,  R. Olivares-Amaya,  R. Olson,  
 T. M. Perrine,  B. Peters,  P. A. Pieniazek,  A. Prociuk,  Y. M. Rhee,  
 J. Ritchie,  M. A. Rohrdanz,  E. Rosta,  N. J. Russ,  H. F. Schaefer III,  
 M. W. Schmidt,  N. E. Schultz,  S. Sharma,  N. Shenvi,  C. D. Sherrill,  
 A. C. Simmonett,  A. Sodt,  T. Stein,  D. Stuck,  K. S. Thanthiriwatte,  
 V. Vanovschi,  L. Vogt,  Tao Wang,  A. Warshel,  M. A. Watson,  
 C. F. Williams,  Q. Wu,  X. Xu,  Jun Yang,  W. Zhang,  Yan Zhao

   Please cite Q-Chem as follows:
  "Software for the frontiers of quantum chemistry:
   An overview of developments in the Q-Chem 5 package"
   J. Chem. Phys. 155, 084801 (2021)
   https://doi.org/10.1063/5.0055522 (open access)

 Q-Chem 6.2.0 for Intel X86 EM64T Linux

 Parts of Q-Chem use Armadillo 9.900.5 (Nocturnal Misbehaviour).
 http://arma.sourceforge.net/

 Q-Chem begins on Thu Jan 30 23:32:13 2025  

 Host: 
0

     Scratch files written to /data/brussel/103/vsc10365/activedata/TDDFTAnthocyanidines/qchem3256199//
 May224 |scratch|qcdevops|jenkins|workspace|build_RNUM -1
 Processing $rem in /apps/brussel/RL8/skylake/software/Q-Chem/6.2.0/config/preferences:
 Processing $rem in /user/brussel/103/vsc10365/.qchemrc:
 Symmetry turned off for PCM/SM12/SMD calculation

 Checking the input file for inconsistencies... 	...done.

--------------------------------------------------------------
User input:
--------------------------------------------------------------
$comment
TDDFT calculation of pelargonidin Q3 structure
nprocs=16
mem=64gb
$end

$molecule
0 1
C   -4.4943845    0.4180708   -0.9766122
C   -4.6765787   -0.4303227    0.1066511
C   -3.7663505   -0.4577857    1.1873554
C   -2.6230453    0.4609618    1.0802027
C   -2.5033488    1.3003747   -0.0601816
C   -3.4076510    1.3018577   -1.0911759
C   -1.6419924    0.5426762    2.0426739
C   -0.5628120    1.4230115    1.9218602
C   -0.4748024    2.2416390    0.8062254
O   -1.4444624    2.1508845   -0.1320620
C    0.5561783    3.2078312    0.4652250
C    1.3876178    3.7948366    1.4346018
C    2.3401561    4.7326200    1.0794548
C    2.4941046    5.0994164   -0.2569187
C    1.6815643    4.5269798   -1.2366831
C    0.7244692    3.6004899   -0.8767279
O   -5.3813303    0.4422280   -2.0109528
H   -5.5386108   -1.0865173    0.1310628
O   -3.8980276   -1.2135251    2.2000667
H   -3.2982103    1.9500759   -1.9479872
H   -1.6961393   -0.0972621    2.9162236
O    0.4219456    1.4716694    2.8676596
H    1.2757887    3.5374265    2.4753131
H    2.9668842    5.1890583    1.8362722
O    3.4223958    6.0138171   -0.6597619
H    1.8112535    4.8136964   -2.2720221
H    0.1050404    3.1628646   -1.6461732
H   -6.1000703   -0.1862145   -1.8479144
H    0.2356585    0.8258979    3.5641617
H    3.9201698    6.3421232    0.1031629
$end

$rem
BASIS  =  def2-ma-TZVP
MEM_STATIC  =  2000
MEM_TOTAL  =  64000
METHOD  =  CAM-B3LYP
SOLVENT_METHOD = pcm
SYMMETRY_IGNORE  =  1
CIS_N_ROOTS = 7
CIS_SINGLETS = true
CIS_TRIPLETS = true
CISTR_PRINT = true
RPA = true
PRINT_ORBITALS = true
SCF_PRINT = 1
SCF_FINAL_PRINT = 2
PRINT_GENERAL_BASIS = true
CISTR_PRINT = true
PRINT_RADII_GYRE = true
MULTIPOLE_ORDER = 5
CIS_AMPL_PRINT = 5
CIS_AMPL_ANAL = true
STATE_ANALYSIS = true
$end

$pcm
Theory   CPCM
Method   SWIG
Solver   Inversion
Radii    Bondi
$end

$solvent
Dielectric         78.39
OpticalDielectric  1.777849
$end


--------------------------------------------------------------
 ----------------------------------------------------------------
             Standard Nuclear Orientation (Angstroms)
    I     Atom           X                Y                Z
 ----------------------------------------------------------------
    1      C      -4.4943845000     0.4180708000    -0.9766122000
    2      C      -4.6765787000    -0.4303227000     0.1066511000
    3      C      -3.7663505000    -0.4577857000     1.1873554000
    4      C      -2.6230453000     0.4609618000     1.0802027000
    5      C      -2.5033488000     1.3003747000    -0.0601816000
    6      C      -3.4076510000     1.3018577000    -1.0911759000
    7      C      -1.6419924000     0.5426762000     2.0426739000
    8      C      -0.5628120000     1.4230115000     1.9218602000
    9      C      -0.4748024000     2.2416390000     0.8062254000
   10      O      -1.4444624000     2.1508845000    -0.1320620000
   11      C       0.5561783000     3.2078312000     0.4652250000
   12      C       1.3876178000     3.7948366000     1.4346018000
   13      C       2.3401561000     4.7326200000     1.0794548000
   14      C       2.4941046000     5.0994164000    -0.2569187000
   15      C       1.6815643000     4.5269798000    -1.2366831000
   16      C       0.7244692000     3.6004899000    -0.8767279000
   17      O      -5.3813303000     0.4422280000    -2.0109528000
   18      H      -5.5386108000    -1.0865173000     0.1310628000
   19      O      -3.8980276000    -1.2135251000     2.2000667000
   20      H      -3.2982103000     1.9500759000    -1.9479872000
   21      H      -1.6961393000    -0.0972621000     2.9162236000
   22      O       0.4219456000     1.4716694000     2.8676596000
   23      H       1.2757887000     3.5374265000     2.4753131000
   24      H       2.9668842000     5.1890583000     1.8362722000
   25      O       3.4223958000     6.0138171000    -0.6597619000
   26      H       1.8112535000     4.8136964000    -2.2720221000
   27      H       0.1050404000     3.1628646000    -1.6461732000
   28      H      -6.1000703000    -0.1862145000    -1.8479144000
   29      H       0.2356585000     0.8258979000     3.5641617000
   30      H       3.9201698000     6.3421232000     0.1031629000
 ----------------------------------------------------------------
 Nuclear Repulsion Energy =        1428.29127332 hartrees
 There are       70 alpha and       70 beta electrons
 Requested basis set is def2-ma-TZVP
 Basis set in general basis input format:
-----------------------------------------------------------------------
$basis
C    0
S    6    1.000000
   1.35753497E+04    2.22458144E-04 
   2.03523337E+03    1.72327383E-03 
   4.63225624E+02    8.92557153E-03 
   1.31200196E+02    3.57279845E-02 
   4.28530159E+01    1.10762599E-01 
   1.55841858E+01    2.42956276E-01 
S    2    1.000000
   6.20671385E+00    4.14402634E-01 
   2.57648965E+00    2.37449687E-01 
S    1    1.000000
   5.76963394E-01    1.00000000E+00 
S    1    1.000000
   2.29728314E-01    1.00000000E+00 
S    1    1.000000
   9.51644400E-02    1.00000000E+00 
S    1    1.000000
   4.84754014E-02    1.00000000E+00 
P    4    1.000000
   3.46972322E+01    5.33336578E-03 
   7.95826228E+00    3.58641091E-02 
   2.37808269E+00    1.42158733E-01 
   8.14332082E-01    3.42704718E-01 
P    1    1.000000
   2.88875473E-01    4.64458224E-01 
P    1    1.000000
   1.00568237E-01    2.49557899E-01 
D    1    1.000000
   1.09700000E+00    1.00000000E+00 
D    1    1.000000
   3.18000000E-01    1.00000000E+00 
F    1    1.000000
   7.61000000E-01    1.00000000E+00 
****
C    0
S    6    1.000000
   1.35753497E+04    2.22458144E-04 
   2.03523337E+03    1.72327383E-03 
   4.63225624E+02    8.92557153E-03 
   1.31200196E+02    3.57279845E-02 
   4.28530159E+01    1.10762599E-01 
   1.55841858E+01    2.42956276E-01 
S    2    1.000000
   6.20671385E+00    4.14402634E-01 
   2.57648965E+00    2.37449687E-01 
S    1    1.000000
   5.76963394E-01    1.00000000E+00 
S    1    1.000000
   2.29728314E-01    1.00000000E+00 
S    1    1.000000
   9.51644400E-02    1.00000000E+00 
S    1    1.000000
   4.84754014E-02    1.00000000E+00 
P    4    1.000000
   3.46972322E+01    5.33336578E-03 
   7.95826228E+00    3.58641091E-02 
   2.37808269E+00    1.42158733E-01 
   8.14332082E-01    3.42704718E-01 
P    1    1.000000
   2.88875473E-01    4.64458224E-01 
P    1    1.000000
   1.00568237E-01    2.49557899E-01 
D    1    1.000000
   1.09700000E+00    1.00000000E+00 
D    1    1.000000
   3.18000000E-01    1.00000000E+00 
F    1    1.000000
   7.61000000E-01    1.00000000E+00 
****
C    0
S    6    1.000000
   1.35753497E+04    2.22458144E-04 
   2.03523337E+03    1.72327383E-03 
   4.63225624E+02    8.92557153E-03 
   1.31200196E+02    3.57279845E-02 
   4.28530159E+01    1.10762599E-01 
   1.55841858E+01    2.42956276E-01 
S    2    1.000000
   6.20671385E+00    4.14402634E-01 
   2.57648965E+00    2.37449687E-01 
S    1    1.000000
   5.76963394E-01    1.00000000E+00 
S    1    1.000000
   2.29728314E-01    1.00000000E+00 
S    1    1.000000
   9.51644400E-02    1.00000000E+00 
S    1    1.000000
   4.84754014E-02    1.00000000E+00 
P    4    1.000000
   3.46972322E+01    5.33336578E-03 
   7.95826228E+00    3.58641091E-02 
   2.37808269E+00    1.42158733E-01 
   8.14332082E-01    3.42704718E-01 
P    1    1.000000
   2.88875473E-01    4.64458224E-01 
P    1    1.000000
   1.00568237E-01    2.49557899E-01 
D    1    1.000000
   1.09700000E+00    1.00000000E+00 
D    1    1.000000
   3.18000000E-01    1.00000000E+00 
F    1    1.000000
   7.61000000E-01    1.00000000E+00 
****
C    0
S    6    1.000000
   1.35753497E+04    2.22458144E-04 
   2.03523337E+03    1.72327383E-03 
   4.63225624E+02    8.92557153E-03 
   1.31200196E+02    3.57279845E-02 
   4.28530159E+01    1.10762599E-01 
   1.55841858E+01    2.42956276E-01 
S    2    1.000000
   6.20671385E+00    4.14402634E-01 
   2.57648965E+00    2.37449687E-01 
S    1    1.000000
   5.76963394E-01    1.00000000E+00 
S    1    1.000000
   2.29728314E-01    1.00000000E+00 
S    1    1.000000
   9.51644400E-02    1.00000000E+00 
S    1    1.000000
   4.84754014E-02    1.00000000E+00 
P    4    1.000000
   3.46972322E+01    5.33336578E-03 
   7.95826228E+00    3.58641091E-02 
   2.37808269E+00    1.42158733E-01 
   8.14332082E-01    3.42704718E-01 
P    1    1.000000
   2.88875473E-01    4.64458224E-01 
P    1    1.000000
   1.00568237E-01    2.49557899E-01 
D    1    1.000000
   1.09700000E+00    1.00000000E+00 
D    1    1.000000
   3.18000000E-01    1.00000000E+00 
F    1    1.000000
   7.61000000E-01    1.00000000E+00 
****
C    0
S    6    1.000000
   1.35753497E+04    2.22458144E-04 
   2.03523337E+03    1.72327383E-03 
   4.63225624E+02    8.92557153E-03 
   1.31200196E+02    3.57279845E-02 
   4.28530159E+01    1.10762599E-01 
   1.55841858E+01    2.42956276E-01 
S    2    1.000000
   6.20671385E+00    4.14402634E-01 
   2.57648965E+00    2.37449687E-01 
S    1    1.000000
   5.76963394E-01    1.00000000E+00 
S    1    1.000000
   2.29728314E-01    1.00000000E+00 
S    1    1.000000
   9.51644400E-02    1.00000000E+00 
S    1    1.000000
   4.84754014E-02    1.00000000E+00 
P    4    1.000000
   3.46972322E+01    5.33336578E-03 
   7.95826228E+00    3.58641091E-02 
   2.37808269E+00    1.42158733E-01 
   8.14332082E-01    3.42704718E-01 
P    1    1.000000
   2.88875473E-01    4.64458224E-01 
P    1    1.000000
   1.00568237E-01    2.49557899E-01 
D    1    1.000000
   1.09700000E+00    1.00000000E+00 
D    1    1.000000
   3.18000000E-01    1.00000000E+00 
F    1    1.000000
   7.61000000E-01    1.00000000E+00 
****
C    0
S    6    1.000000
   1.35753497E+04    2.22458144E-04 
   2.03523337E+03    1.72327383E-03 
   4.63225624E+02    8.92557153E-03 
   1.31200196E+02    3.57279845E-02 
   4.28530159E+01    1.10762599E-01 
   1.55841858E+01    2.42956276E-01 
S    2    1.000000
   6.20671385E+00    4.14402634E-01 
   2.57648965E+00    2.37449687E-01 
S    1    1.000000
   5.76963394E-01    1.00000000E+00 
S    1    1.000000
   2.29728314E-01    1.00000000E+00 
S    1    1.000000
   9.51644400E-02    1.00000000E+00 
S    1    1.000000
   4.84754014E-02    1.00000000E+00 
P    4    1.000000
   3.46972322E+01    5.33336578E-03 
   7.95826228E+00    3.58641091E-02 
   2.37808269E+00    1.42158733E-01 
   8.14332082E-01    3.42704718E-01 
P    1    1.000000
   2.88875473E-01    4.64458224E-01 
P    1    1.000000
   1.00568237E-01    2.49557899E-01 
D    1    1.000000
   1.09700000E+00    1.00000000E+00 
D    1    1.000000
   3.18000000E-01    1.00000000E+00 
F    1    1.000000
   7.61000000E-01    1.00000000E+00 
****
C    0
S    6    1.000000
   1.35753497E+04    2.22458144E-04 
   2.03523337E+03    1.72327383E-03 
   4.63225624E+02    8.92557153E-03 
   1.31200196E+02    3.57279845E-02 
   4.28530159E+01    1.10762599E-01 
   1.55841858E+01    2.42956276E-01 
S    2    1.000000
   6.20671385E+00    4.14402634E-01 
   2.57648965E+00    2.37449687E-01 
S    1    1.000000
   5.76963394E-01    1.00000000E+00 
S    1    1.000000
   2.29728314E-01    1.00000000E+00 
S    1    1.000000
   9.51644400E-02    1.00000000E+00 
S    1    1.000000
   4.84754014E-02    1.00000000E+00 
P    4    1.000000
   3.46972322E+01    5.33336578E-03 
   7.95826228E+00    3.58641091E-02 
   2.37808269E+00    1.42158733E-01 
   8.14332082E-01    3.42704718E-01 
P    1    1.000000
   2.88875473E-01    4.64458224E-01 
P    1    1.000000
   1.00568237E-01    2.49557899E-01 
D    1    1.000000
   1.09700000E+00    1.00000000E+00 
D    1    1.000000
   3.18000000E-01    1.00000000E+00 
F    1    1.000000
   7.61000000E-01    1.00000000E+00 
****
C    0
S    6    1.000000
   1.35753497E+04    2.22458144E-04 
   2.03523337E+03    1.72327383E-03 
   4.63225624E+02    8.92557153E-03 
   1.31200196E+02    3.57279845E-02 
   4.28530159E+01    1.10762599E-01 
   1.55841858E+01    2.42956276E-01 
S    2    1.000000
   6.20671385E+00    4.14402634E-01 
   2.57648965E+00    2.37449687E-01 
S    1    1.000000
   5.76963394E-01    1.00000000E+00 
S    1    1.000000
   2.29728314E-01    1.00000000E+00 
S    1    1.000000
   9.51644400E-02    1.00000000E+00 
S    1    1.000000
   4.84754014E-02    1.00000000E+00 
P    4    1.000000
   3.46972322E+01    5.33336578E-03 
   7.95826228E+00    3.58641091E-02 
   2.37808269E+00    1.42158733E-01 
   8.14332082E-01    3.42704718E-01 
P    1    1.000000
   2.88875473E-01    4.64458224E-01 
P    1    1.000000
   1.00568237E-01    2.49557899E-01 
D    1    1.000000
   1.09700000E+00    1.00000000E+00 
D    1    1.000000
   3.18000000E-01    1.00000000E+00 
F    1    1.000000
   7.61000000E-01    1.00000000E+00 
****
C    0
S    6    1.000000
   1.35753497E+04    2.22458144E-04 
   2.03523337E+03    1.72327383E-03 
   4.63225624E+02    8.92557153E-03 
   1.31200196E+02    3.57279845E-02 
   4.28530159E+01    1.10762599E-01 
   1.55841858E+01    2.42956276E-01 
S    2    1.000000
   6.20671385E+00    4.14402634E-01 
   2.57648965E+00    2.37449687E-01 
S    1    1.000000
   5.76963394E-01    1.00000000E+00 
S    1    1.000000
   2.29728314E-01    1.00000000E+00 
S    1    1.000000
   9.51644400E-02    1.00000000E+00 
S    1    1.000000
   4.84754014E-02    1.00000000E+00 
P    4    1.000000
   3.46972322E+01    5.33336578E-03 
   7.95826228E+00    3.58641091E-02 
   2.37808269E+00    1.42158733E-01 
   8.14332082E-01    3.42704718E-01 
P    1    1.000000
   2.88875473E-01    4.64458224E-01 
P    1    1.000000
   1.00568237E-01    2.49557899E-01 
D    1    1.000000
   1.09700000E+00    1.00000000E+00 
D    1    1.000000
   3.18000000E-01    1.00000000E+00 
F    1    1.000000
   7.61000000E-01    1.00000000E+00 
****
O    0
S    6    1.000000
   2.70323826E+04    2.17263025E-04 
   4.05238714E+03    1.68386622E-03 
   9.22327227E+02    8.73956163E-03 
   2.61240710E+02    3.52399688E-02 
   8.53546414E+01    1.11535191E-01 
   3.10350352E+01    2.55889540E-01 
S    2    1.000000
   1.22608607E+01    3.97687309E-01 
   4.99870760E+00    2.46278494E-01 
S    1    1.000000
   1.17031082E+00    1.00000000E+00 
S    1    1.000000
   4.64747410E-01    1.00000000E+00 
S    1    1.000000
   1.85045364E-01    1.00000000E+00 
S    1    1.000000
   7.02880263E-02    1.00000000E+00 
P    4    1.000000
   6.32749548E+01    6.06851034E-03 
   1.46270494E+01    4.19125758E-02 
   4.45012235E+00    1.61538411E-01 
   1.52757996E+00    3.57069513E-01 
P    1    1.000000
   5.29351179E-01    4.47942075E-01 
P    1    1.000000
   1.74784213E-01    2.44460697E-01 
P    1    1.000000
   5.11127457E-02    1.00000000E+00 
D    1    1.000000
   2.31400000E+00    1.00000000E+00 
D    1    1.000000
   6.45000000E-01    1.00000000E+00 
F    1    1.000000
   1.42800000E+00    1.00000000E+00 
****
C    0
S    6    1.000000
   1.35753497E+04    2.22458144E-04 
   2.03523337E+03    1.72327383E-03 
   4.63225624E+02    8.92557153E-03 
   1.31200196E+02    3.57279845E-02 
   4.28530159E+01    1.10762599E-01 
   1.55841858E+01    2.42956276E-01 
S    2    1.000000
   6.20671385E+00    4.14402634E-01 
   2.57648965E+00    2.37449687E-01 
S    1    1.000000
   5.76963394E-01    1.00000000E+00 
S    1    1.000000
   2.29728314E-01    1.00000000E+00 
S    1    1.000000
   9.51644400E-02    1.00000000E+00 
S    1    1.000000
   4.84754014E-02    1.00000000E+00 
P    4    1.000000
   3.46972322E+01    5.33336578E-03 
   7.95826228E+00    3.58641091E-02 
   2.37808269E+00    1.42158733E-01 
   8.14332082E-01    3.42704718E-01 
P    1    1.000000
   2.88875473E-01    4.64458224E-01 
P    1    1.000000
   1.00568237E-01    2.49557899E-01 
D    1    1.000000
   1.09700000E+00    1.00000000E+00 
D    1    1.000000
   3.18000000E-01    1.00000000E+00 
F    1    1.000000
   7.61000000E-01    1.00000000E+00 
****
C    0
S    6    1.000000
   1.35753497E+04    2.22458144E-04 
   2.03523337E+03    1.72327383E-03 
   4.63225624E+02    8.92557153E-03 
   1.31200196E+02    3.57279845E-02 
   4.28530159E+01    1.10762599E-01 
   1.55841858E+01    2.42956276E-01 
S    2    1.000000
   6.20671385E+00    4.14402634E-01 
   2.57648965E+00    2.37449687E-01 
S    1    1.000000
   5.76963394E-01    1.00000000E+00 
S    1    1.000000
   2.29728314E-01    1.00000000E+00 
S    1    1.000000
   9.51644400E-02    1.00000000E+00 
S    1    1.000000
   4.84754014E-02    1.00000000E+00 
P    4    1.000000
   3.46972322E+01    5.33336578E-03 
   7.95826228E+00    3.58641091E-02 
   2.37808269E+00    1.42158733E-01 
   8.14332082E-01    3.42704718E-01 
P    1    1.000000
   2.88875473E-01    4.64458224E-01 
P    1    1.000000
   1.00568237E-01    2.49557899E-01 
D    1    1.000000
   1.09700000E+00    1.00000000E+00 
D    1    1.000000
   3.18000000E-01    1.00000000E+00 
F    1    1.000000
   7.61000000E-01    1.00000000E+00 
****
C    0
S    6    1.000000
   1.35753497E+04    2.22458144E-04 
   2.03523337E+03    1.72327383E-03 
   4.63225624E+02    8.92557153E-03 
   1.31200196E+02    3.57279845E-02 
   4.28530159E+01    1.10762599E-01 
   1.55841858E+01    2.42956276E-01 
S    2    1.000000
   6.20671385E+00    4.14402634E-01 
   2.57648965E+00    2.37449687E-01 
S    1    1.000000
   5.76963394E-01    1.00000000E+00 
S    1    1.000000
   2.29728314E-01    1.00000000E+00 
S    1    1.000000
   9.51644400E-02    1.00000000E+00 
S    1    1.000000
   4.84754014E-02    1.00000000E+00 
P    4    1.000000
   3.46972322E+01    5.33336578E-03 
   7.95826228E+00    3.58641091E-02 
   2.37808269E+00    1.42158733E-01 
   8.14332082E-01    3.42704718E-01 
P    1    1.000000
   2.88875473E-01    4.64458224E-01 
P    1    1.000000
   1.00568237E-01    2.49557899E-01 
D    1    1.000000
   1.09700000E+00    1.00000000E+00 
D    1    1.000000
   3.18000000E-01    1.00000000E+00 
F    1    1.000000
   7.61000000E-01    1.00000000E+00 
****
C    0
S    6    1.000000
   1.35753497E+04    2.22458144E-04 
   2.03523337E+03    1.72327383E-03 
   4.63225624E+02    8.92557153E-03 
   1.31200196E+02    3.57279845E-02 
   4.28530159E+01    1.10762599E-01 
   1.55841858E+01    2.42956276E-01 
S    2    1.000000
   6.20671385E+00    4.14402634E-01 
   2.57648965E+00    2.37449687E-01 
S    1    1.000000
   5.76963394E-01    1.00000000E+00 
S    1    1.000000
   2.29728314E-01    1.00000000E+00 
S    1    1.000000
   9.51644400E-02    1.00000000E+00 
S    1    1.000000
   4.84754014E-02    1.00000000E+00 
P    4    1.000000
   3.46972322E+01    5.33336578E-03 
   7.95826228E+00    3.58641091E-02 
   2.37808269E+00    1.42158733E-01 
   8.14332082E-01    3.42704718E-01 
P    1    1.000000
   2.88875473E-01    4.64458224E-01 
P    1    1.000000
   1.00568237E-01    2.49557899E-01 
D    1    1.000000
   1.09700000E+00    1.00000000E+00 
D    1    1.000000
   3.18000000E-01    1.00000000E+00 
F    1    1.000000
   7.61000000E-01    1.00000000E+00 
****
C    0
S    6    1.000000
   1.35753497E+04    2.22458144E-04 
   2.03523337E+03    1.72327383E-03 
   4.63225624E+02    8.92557153E-03 
   1.31200196E+02    3.57279845E-02 
   4.28530159E+01    1.10762599E-01 
   1.55841858E+01    2.42956276E-01 
S    2    1.000000
   6.20671385E+00    4.14402634E-01 
   2.57648965E+00    2.37449687E-01 
S    1    1.000000
   5.76963394E-01    1.00000000E+00 
S    1    1.000000
   2.29728314E-01    1.00000000E+00 
S    1    1.000000
   9.51644400E-02    1.00000000E+00 
S    1    1.000000
   4.84754014E-02    1.00000000E+00 
P    4    1.000000
   3.46972322E+01    5.33336578E-03 
   7.95826228E+00    3.58641091E-02 
   2.37808269E+00    1.42158733E-01 
   8.14332082E-01    3.42704718E-01 
P    1    1.000000
   2.88875473E-01    4.64458224E-01 
P    1    1.000000
   1.00568237E-01    2.49557899E-01 
D    1    1.000000
   1.09700000E+00    1.00000000E+00 
D    1    1.000000
   3.18000000E-01    1.00000000E+00 
F    1    1.000000
   7.61000000E-01    1.00000000E+00 
****
C    0
S    6    1.000000
   1.35753497E+04    2.22458144E-04 
   2.03523337E+03    1.72327383E-03 
   4.63225624E+02    8.92557153E-03 
   1.31200196E+02    3.57279845E-02 
   4.28530159E+01    1.10762599E-01 
   1.55841858E+01    2.42956276E-01 
S    2    1.000000
   6.20671385E+00    4.14402634E-01 
   2.57648965E+00    2.37449687E-01 
S    1    1.000000
   5.76963394E-01    1.00000000E+00 
S    1    1.000000
   2.29728314E-01    1.00000000E+00 
S    1    1.000000
   9.51644400E-02    1.00000000E+00 
S    1    1.000000
   4.84754014E-02    1.00000000E+00 
P    4    1.000000
   3.46972322E+01    5.33336578E-03 
   7.95826228E+00    3.58641091E-02 
   2.37808269E+00    1.42158733E-01 
   8.14332082E-01    3.42704718E-01 
P    1    1.000000
   2.88875473E-01    4.64458224E-01 
P    1    1.000000
   1.00568237E-01    2.49557899E-01 
D    1    1.000000
   1.09700000E+00    1.00000000E+00 
D    1    1.000000
   3.18000000E-01    1.00000000E+00 
F    1    1.000000
   7.61000000E-01    1.00000000E+00 
****
O    0
S    6    1.000000
   2.70323826E+04    2.17263025E-04 
   4.05238714E+03    1.68386622E-03 
   9.22327227E+02    8.73956163E-03 
   2.61240710E+02    3.52399688E-02 
   8.53546414E+01    1.11535191E-01 
   3.10350352E+01    2.55889540E-01 
S    2    1.000000
   1.22608607E+01    3.97687309E-01 
   4.99870760E+00    2.46278494E-01 
S    1    1.000000
   1.17031082E+00    1.00000000E+00 
S    1    1.000000
   4.64747410E-01    1.00000000E+00 
S    1    1.000000
   1.85045364E-01    1.00000000E+00 
S    1    1.000000
   7.02880263E-02    1.00000000E+00 
P    4    1.000000
   6.32749548E+01    6.06851034E-03 
   1.46270494E+01    4.19125758E-02 
   4.45012235E+00    1.61538411E-01 
   1.52757996E+00    3.57069513E-01 
P    1    1.000000
   5.29351179E-01    4.47942075E-01 
P    1    1.000000
   1.74784213E-01    2.44460697E-01 
P    1    1.000000
   5.11127457E-02    1.00000000E+00 
D    1    1.000000
   2.31400000E+00    1.00000000E+00 
D    1    1.000000
   6.45000000E-01    1.00000000E+00 
F    1    1.000000
   1.42800000E+00    1.00000000E+00 
****
H    0
S    3    1.000000
   3.40613410E+01    6.02519780E-03 
   5.12357460E+00    4.50210940E-02 
   1.16466260E+00    2.01897260E-01 
S    1    1.000000
   3.27230410E-01    1.00000000E+00 
S    1    1.000000
   1.03072410E-01    1.00000000E+00 
P    1    1.000000
   8.00000000E-01    1.00000000E+00 
****
O    0
S    6    1.000000
   2.70323826E+04    2.17263025E-04 
   4.05238714E+03    1.68386622E-03 
   9.22327227E+02    8.73956163E-03 
   2.61240710E+02    3.52399688E-02 
   8.53546414E+01    1.11535191E-01 
   3.10350352E+01    2.55889540E-01 
S    2    1.000000
   1.22608607E+01    3.97687309E-01 
   4.99870760E+00    2.46278494E-01 
S    1    1.000000
   1.17031082E+00    1.00000000E+00 
S    1    1.000000
   4.64747410E-01    1.00000000E+00 
S    1    1.000000
   1.85045364E-01    1.00000000E+00 
S    1    1.000000
   7.02880263E-02    1.00000000E+00 
P    4    1.000000
   6.32749548E+01    6.06851034E-03 
   1.46270494E+01    4.19125758E-02 
   4.45012235E+00    1.61538411E-01 
   1.52757996E+00    3.57069513E-01 
P    1    1.000000
   5.29351179E-01    4.47942075E-01 
P    1    1.000000
   1.74784213E-01    2.44460697E-01 
P    1    1.000000
   5.11127457E-02    1.00000000E+00 
D    1    1.000000
   2.31400000E+00    1.00000000E+00 
D    1    1.000000
   6.45000000E-01    1.00000000E+00 
F    1    1.000000
   1.42800000E+00    1.00000000E+00 
****
H    0
S    3    1.000000
   3.40613410E+01    6.02519780E-03 
   5.12357460E+00    4.50210940E-02 
   1.16466260E+00    2.01897260E-01 
S    1    1.000000
   3.27230410E-01    1.00000000E+00 
S    1    1.000000
   1.03072410E-01    1.00000000E+00 
P    1    1.000000
   8.00000000E-01    1.00000000E+00 
****
H    0
S    3    1.000000
   3.40613410E+01    6.02519780E-03 
   5.12357460E+00    4.50210940E-02 
   1.16466260E+00    2.01897260E-01 
S    1    1.000000
   3.27230410E-01    1.00000000E+00 
S    1    1.000000
   1.03072410E-01    1.00000000E+00 
P    1    1.000000
   8.00000000E-01    1.00000000E+00 
****
O    0
S    6    1.000000
   2.70323826E+04    2.17263025E-04 
   4.05238714E+03    1.68386622E-03 
   9.22327227E+02    8.73956163E-03 
   2.61240710E+02    3.52399688E-02 
   8.53546414E+01    1.11535191E-01 
   3.10350352E+01    2.55889540E-01 
S    2    1.000000
   1.22608607E+01    3.97687309E-01 
   4.99870760E+00    2.46278494E-01 
S    1    1.000000
   1.17031082E+00    1.00000000E+00 
S    1    1.000000
   4.64747410E-01    1.00000000E+00 
S    1    1.000000
   1.85045364E-01    1.00000000E+00 
S    1    1.000000
   7.02880263E-02    1.00000000E+00 
P    4    1.000000
   6.32749548E+01    6.06851034E-03 
   1.46270494E+01    4.19125758E-02 
   4.45012235E+00    1.61538411E-01 
   1.52757996E+00    3.57069513E-01 
P    1    1.000000
   5.29351179E-01    4.47942075E-01 
P    1    1.000000
   1.74784213E-01    2.44460697E-01 
P    1    1.000000
   5.11127457E-02    1.00000000E+00 
D    1    1.000000
   2.31400000E+00    1.00000000E+00 
D    1    1.000000
   6.45000000E-01    1.00000000E+00 
F    1    1.000000
   1.42800000E+00    1.00000000E+00 
****
H    0
S    3    1.000000
   3.40613410E+01    6.02519780E-03 
   5.12357460E+00    4.50210940E-02 
   1.16466260E+00    2.01897260E-01 
S    1    1.000000
   3.27230410E-01    1.00000000E+00 
S    1    1.000000
   1.03072410E-01    1.00000000E+00 
P    1    1.000000
   8.00000000E-01    1.00000000E+00 
****
H    0
S    3    1.000000
   3.40613410E+01    6.02519780E-03 
   5.12357460E+00    4.50210940E-02 
   1.16466260E+00    2.01897260E-01 
S    1    1.000000
   3.27230410E-01    1.00000000E+00 
S    1    1.000000
   1.03072410E-01    1.00000000E+00 
P    1    1.000000
   8.00000000E-01    1.00000000E+00 
****
O    0
S    6    1.000000
   2.70323826E+04    2.17263025E-04 
   4.05238714E+03    1.68386622E-03 
   9.22327227E+02    8.73956163E-03 
   2.61240710E+02    3.52399688E-02 
   8.53546414E+01    1.11535191E-01 
   3.10350352E+01    2.55889540E-01 
S    2    1.000000
   1.22608607E+01    3.97687309E-01 
   4.99870760E+00    2.46278494E-01 
S    1    1.000000
   1.17031082E+00    1.00000000E+00 
S    1    1.000000
   4.64747410E-01    1.00000000E+00 
S    1    1.000000
   1.85045364E-01    1.00000000E+00 
S    1    1.000000
   7.02880263E-02    1.00000000E+00 
P    4    1.000000
   6.32749548E+01    6.06851034E-03 
   1.46270494E+01    4.19125758E-02 
   4.45012235E+00    1.61538411E-01 
   1.52757996E+00    3.57069513E-01 
P    1    1.000000
   5.29351179E-01    4.47942075E-01 
P    1    1.000000
   1.74784213E-01    2.44460697E-01 
P    1    1.000000
   5.11127457E-02    1.00000000E+00 
D    1    1.000000
   2.31400000E+00    1.00000000E+00 
D    1    1.000000
   6.45000000E-01    1.00000000E+00 
F    1    1.000000
   1.42800000E+00    1.00000000E+00 
****
H    0
S    3    1.000000
   3.40613410E+01    6.02519780E-03 
   5.12357460E+00    4.50210940E-02 
   1.16466260E+00    2.01897260E-01 
S    1    1.000000
   3.27230410E-01    1.00000000E+00 
S    1    1.000000
   1.03072410E-01    1.00000000E+00 
P    1    1.000000
   8.00000000E-01    1.00000000E+00 
****
H    0
S    3    1.000000
   3.40613410E+01    6.02519780E-03 
   5.12357460E+00    4.50210940E-02 
   1.16466260E+00    2.01897260E-01 
S    1    1.000000
   3.27230410E-01    1.00000000E+00 
S    1    1.000000
   1.03072410E-01    1.00000000E+00 
P    1    1.000000
   8.00000000E-01    1.00000000E+00 
****
H    0
S    3    1.000000
   3.40613410E+01    6.02519780E-03 
   5.12357460E+00    4.50210940E-02 
   1.16466260E+00    2.01897260E-01 
S    1    1.000000
   3.27230410E-01    1.00000000E+00 
S    1    1.000000
   1.03072410E-01    1.00000000E+00 
P    1    1.000000
   8.00000000E-01    1.00000000E+00 
****
H    0
S    3    1.000000
   3.40613410E+01    6.02519780E-03 
   5.12357460E+00    4.50210940E-02 
   1.16466260E+00    2.01897260E-01 
S    1    1.000000
   3.27230410E-01    1.00000000E+00 
S    1    1.000000
   1.03072410E-01    1.00000000E+00 
P    1    1.000000
   8.00000000E-01    1.00000000E+00 
****
H    0
S    3    1.000000
   3.40613410E+01    6.02519780E-03 
   5.12357460E+00    4.50210940E-02 
   1.16466260E+00    2.01897260E-01 
S    1    1.000000
   3.27230410E-01    1.00000000E+00 
S    1    1.000000
   1.03072410E-01    1.00000000E+00 
P    1    1.000000
   8.00000000E-01    1.00000000E+00 
****
$end
-----------------------------------------------------------------------
 There are 285 shells and 715 basis functions

 Total QAlloc Memory Limit  64000 MB
 Mega-Array Size      1956 MB
 MEM_STATIC part      2000 MB

 User-specified dielectric constants (eps_0 = 78.39, eps_inf = 1.78)
 Using C-PCM dielectric factor f(eps) = (eps-1)/eps = 0.987243
 Static dielectric constant eps = 78.39
 Discretize the solute cavity surface with Lebedev spheres
	Using 110 Lebedev grid points for each H atom
	Using 194 Lebedev grid points for other atoms
	Atomic van der Waals radii (Bondi set) will be scaled by 1.20
 Using smooth SwiG surface discretization
 Remove points where switching function is < 1.0e-08
 Keep 2025 surface tesserae and discard 2955 interior tesserae
 Molecular Surface Area = 287.651 Angst**2

 A cutoff of  1.0D-12 yielded  29812 shell pairs
 There are    178048 function pairs (    226787 Cartesian)
 Smallest overlap matrix eigenvalue = 4.83E-06

 Scale SEOQF with 1.000000e-02/1.000000e-02/1.000000e-01

 Standard Electronic Orientation quadrupole field applied
 Nucleus-field energy     =    -0.0000000195 hartrees
 Guess from superposition of atomic densities
 Warning:  Energy on first SCF cycle will be non-variational
 SAD guess density has 140.000000 electrons

 -----------------------------------------------------------------------
  General SCF calculation program by
  Eric Jon Sundstrom, Paul Horn, Yuezhi Mao, Dmitri Zuev, Alec White,
  David Stuck, Shaama M.S., Shane Yost, Joonho Lee, David Small,
  Daniel Levine, Susi Lehtola, Hugh Burton, Evgeny Epifanovsky,
  Bang C. Huynh
 -----------------------------------------------------------------------
 Exchange:     0.1900 Hartree-Fock + 0.3500 B88 + 0.4600 muB88 + LR-HF
 Correlation:  0.1900 VWN5 + 0.8100 LYP
 Using SG-1 standard quadrature grid
 using 16 threads for integral computing
 -------------------------------------------------------
 OpenMP Integral computing Module                
 Release: version 1.0, May 2013, Q-Chem Inc. Pittsburgh 
 -------------------------------------------------------
 C-PCM solvent model [f = (eps-1)/eps], solve by matrix inversion
 DFT Correlation          Energy =  -5.68403086583752
 DFT Exchange             Energy = -86.74512064342339
 HF Exchange              Energy = -35.79341486861677
 One-Electron             Energy = -4123.22599106335383
 SCRF wf-dependent energy Energy =   0.00000000000000
 Total Coulomb            Energy = 1863.45639941415811
 Nuclear repulsion Energy = 1428.29127330082565
 A restricted SCF calculation will be
 performed using DIIS
 SCF converges when DIIS error is below 1.0e-08
 DFT Correlation          Energy =  -5.68403086583752
 DFT Exchange             Energy = -86.74512064342339
 HF Exchange              Energy = -35.79341486861677
 One-Electron             Energy = -4123.22599106335383
 SCRF wf-dependent energy Energy =   0.00000000000000
 Total Coulomb            Energy = 1863.45639941415811
 ---------------------------------------
  Cycle       Energy         DIIS error
 ---------------------------------------
 DFT Correlation          Energy =  -5.76446444000943
 DFT Exchange             Energy = -88.62985289948401
 HF Exchange              Energy = -34.48542950289342
 One-Electron             Energy = -4142.80172932260302
 SCRF wf-dependent energy Energy =  -0.65711540401753
 Total Coulomb            Energy = 1890.67085528507482
 Nuclear repulsion Energy = 1428.29127330082565
    1    -959.7008847262      2.17e-02  
 DFT Correlation          Energy =  -5.70842184785654
 DFT Exchange             Energy = -87.06232565766945
 HF Exchange              Energy = -34.04577702791541
 One-Electron             Energy = -4130.08961237359472
 SCRF wf-dependent energy Energy =   0.52912592515918
 Total Coulomb            Energy = 1874.83091026326110
 Nuclear repulsion Energy = 1428.29127330082565
    2    -953.3764629831      2.35e-03  
 DFT Correlation          Energy =  -5.73295232970070
 DFT Exchange             Energy = -87.80722098267466
 HF Exchange              Energy = -34.27245372157935
 One-Electron             Energy = -4133.65407354822310
 SCRF wf-dependent energy Energy =  -0.67972928446898
 Total Coulomb            Energy = 1880.19727366332313
 Nuclear repulsion Energy = 1428.29127330082565
    3    -953.2548274178      2.98e-03  
 DFT Correlation          Energy =  -5.73533368707574
 DFT Exchange             Energy = -87.84261566667985
 HF Exchange              Energy = -34.28152167343994
 One-Electron             Energy = -4135.40618428917514
 SCRF wf-dependent energy Energy =  -0.35652643318326
 Total Coulomb            Energy = 1881.65974693178578
 Nuclear repulsion Energy = 1428.29127330082565
    4    -953.6578829025      5.43e-04  
 DFT Correlation          Energy =  -5.73498867136930
 DFT Exchange             Energy = -87.83561101950721
 HF Exchange              Energy = -34.28038615955209
 One-Electron             Energy = -4135.40991798345385
 SCRF wf-dependent energy Energy =  -0.32252111405569
 Total Coulomb            Energy = 1881.61945018430310
 Nuclear repulsion Energy = 1428.29127330082565
    5    -953.6711615169      1.83e-04  
 DFT Correlation          Energy =  -5.73475225928722
 DFT Exchange             Energy = -87.83226265506254
 HF Exchange              Energy = -34.28009397262129
 One-Electron             Energy = -4135.20976710550531
 SCRF wf-dependent energy Energy =  -0.36243090450148
 Total Coulomb            Energy = 1881.45512566601178
 Nuclear repulsion Energy = 1428.29127330082565
    6    -953.6727014628      5.97e-05  
 DFT Correlation          Energy =  -5.73473479306213
 DFT Exchange             Energy = -87.83170393791217
 HF Exchange              Energy = -34.28017362577059
 One-Electron             Energy = -4135.22013315703953
 SCRF wf-dependent energy Energy =  -0.35572740436760
 Total Coulomb            Energy = 1881.45826602659395
 Nuclear repulsion Energy = 1428.29127330082565
    7    -953.6729079301      1.62e-05  
 DFT Correlation          Energy =  -5.73477394781197
 DFT Exchange             Energy = -87.83247841621437
 HF Exchange              Energy = -34.28046173924906
 One-Electron             Energy = -4135.24183518332757
 SCRF wf-dependent energy Energy =  -0.35289479189123
 Total Coulomb            Energy = 1881.47822868796356
 Nuclear repulsion Energy = 1428.29127330082565
    8    -953.6729335907      7.35e-06  
 DFT Correlation          Energy =  -5.73477565592994
 DFT Exchange             Energy = -87.83275910276143
 HF Exchange              Energy = -34.28060587096846
 One-Electron             Energy = -4135.24526075492849
 SCRF wf-dependent energy Energy =  -0.35138209013598
 Total Coulomb            Energy = 1881.48056462806994
 Nuclear repulsion Energy = 1428.29127330082565
    9    -953.6729420897      3.26e-06  
 DFT Correlation          Energy =  -5.73476842816913
 DFT Exchange             Energy = -87.83249918991739
 HF Exchange              Energy = -34.28055393188065
 One-Electron             Energy = -4135.24135660452157
 SCRF wf-dependent energy Energy =  -0.35167110991006
 Total Coulomb            Energy = 1881.47662972076091
 Nuclear repulsion Energy = 1428.29127330082565
   10    -953.6729455458      1.93e-06  
 DFT Correlation          Energy =  -5.73477239219222
 DFT Exchange             Energy = -87.83263620914444
 HF Exchange              Energy = -34.28059246498954
 One-Electron             Energy = -4135.24411291456272
 SCRF wf-dependent energy Energy =  -0.35115491154966
 Total Coulomb            Energy = 1881.47904918576364
 Nuclear repulsion Energy = 1428.29127330082565
   11    -953.6729462428      6.49e-07  
 DFT Correlation          Energy =  -5.73477291217741
 DFT Exchange             Energy = -87.83263058195023
 HF Exchange              Energy = -34.28059041769968
 One-Electron             Energy = -4135.24444745747678
 SCRF wf-dependent energy Energy =  -0.35103677467851
 Total Coulomb            Energy = 1881.47925840810262
 Nuclear repulsion Energy = 1428.29127330082565
   12    -953.6729464058      3.80e-07  
 DFT Correlation          Energy =  -5.73477280476817
 DFT Exchange             Energy = -87.83263353546903
 HF Exchange              Energy = -34.28059041269823
 One-Electron             Energy = -4135.24437322830454
 SCRF wf-dependent energy Energy =  -0.35103334652285
 Total Coulomb            Energy = 1881.47918358808056
 Nuclear repulsion Energy = 1428.29127330082565
   13    -953.6729464351      1.41e-07  
 DFT Correlation          Energy =  -5.73477282871194
 DFT Exchange             Energy = -87.83263294505528
 HF Exchange              Energy = -34.28058994098095
 One-Electron             Energy = -4135.24443767299636
 SCRF wf-dependent energy Energy =  -0.35100899353756
 Total Coulomb            Energy = 1881.47922264163230
 Nuclear repulsion Energy = 1428.29127330082565
   14    -953.6729464389      3.96e-08  
 DFT Correlation          Energy =  -5.73477285482305
 DFT Exchange             Energy = -87.83263321077520
 HF Exchange              Energy = -34.28058995676506
 One-Electron             Energy = -4135.24444254307309
 SCRF wf-dependent energy Energy =  -0.35100978166679
 Total Coulomb            Energy = 1881.47922860737003
 Nuclear repulsion Energy = 1428.29127330082565
   15    -953.6729464388      1.84e-08  
   16    -953.6729464389      5.76e-09  Convergence criterion met
 ---------------------------------------
 DFT Correlation          Energy =  -5.73477285482305
 DFT Exchange             Energy = -87.83263321077520
 HF Exchange              Energy = -34.28058995676506
 One-Electron             Energy = -4135.24444254307309
 SCRF wf-dependent energy Energy =  -0.35100978166679
 Total Coulomb            Energy = 1881.47922860737003
 Final Alpha MO Eigenvalues
            1           2           3           4           5           6
    1 -19.2995032 -19.2456832 -19.2435891 -19.2420692 -19.1511312 -10.3609873
            7           8           9          10          11          12
    1 -10.3460550 -10.3370349 -10.3352697 -10.3286008 -10.3205463 -10.2979429
           13          14          15          16          17          18
    1 -10.2761597 -10.2749690 -10.2677893 -10.2675978 -10.2572004 -10.2557979
           19          20          21          22          23          24
    1 -10.2432027 -10.2324762  -1.2250564  -1.1608480  -1.1564004  -1.1547131
           25          26          27          28          29          30
    1  -1.0767720  -0.9667488  -0.9481933  -0.9230702  -0.8816893  -0.8488380
           31          32          33          34          35          36
    1  -0.8311975  -0.8181924  -0.7657485  -0.7600072  -0.7137187  -0.7023419
           37          38          39          40          41          42
    1  -0.6830102  -0.6695111  -0.6369928  -0.6294011  -0.6241211  -0.5958205
           43          44          45          46          47          48
    1  -0.5842333  -0.5744610  -0.5609914  -0.5460273  -0.5330566  -0.5277955
           49          50          51          52          53          54
    1  -0.5087631  -0.5044926  -0.5034353  -0.4985423  -0.4932169  -0.4880795
           55          56          57          58          59          60
    1  -0.4840209  -0.4738037  -0.4616338  -0.4575997  -0.4527841  -0.4461590
           61          62          63          64          65          66
    1  -0.4315325  -0.4274619  -0.4110558  -0.3834339  -0.3648187  -0.3296349
           67          68          69          70          71          72
    1  -0.3218013  -0.3148954  -0.2830300  -0.2493223  -0.0669119   0.0064981
           73          74          75          76          77          78
    1   0.0198486   0.0297226   0.0382847   0.0402369   0.0478467   0.0524369
           79          80          81          82          83          84
    1   0.0542374   0.0619866   0.0731660   0.0740785   0.0766753   0.0827179
           85          86          87          88          89          90
    1   0.0893540   0.0955573   0.0966367   0.1008334   0.1025581   0.1103257
           91          92          93          94          95          96
    1   0.1136375   0.1229351   0.1267852   0.1282836   0.1395093   0.1428611
           97          98          99         100         101         102
    1   0.1452141   0.1475216   0.1595866   0.1739555   0.1754358   0.1801688
          103         104         105         106         107         108
    1   0.1842722   0.1901234   0.1929355   0.1947609   0.2022347   0.2089262
          109         110         111         112         113         114
    1   0.2109776   0.2172050   0.2215575   0.2317110   0.2335416   0.2379533
          115         116         117         118         119         120
    1   0.2458362   0.2488553   0.2572876   0.2606871   0.2652660   0.2723741
          121         122         123         124         125         126
    1   0.2805543   0.2859161   0.2872507   0.2913673   0.2973422   0.3045700
          127         128         129         130         131         132
    1   0.3075408   0.3127351   0.3171433   0.3219263   0.3268065   0.3303498
          133         134         135         136         137         138
    1   0.3355477   0.3391866   0.3400342   0.3429341   0.3471696   0.3520400
          139         140         141         142         143         144
    1   0.3542930   0.3604652   0.3701636   0.3711009   0.3754118   0.3771275
          145         146         147         148         149         150
    1   0.3912673   0.3937080   0.3952022   0.4004874   0.4067724   0.4104916
          151         152         153         154         155         156
    1   0.4140230   0.4210461   0.4278563   0.4367215   0.4405557   0.4442864
          157         158         159         160         161         162
    1   0.4468086   0.4496830   0.4556153   0.4567511   0.4632946   0.4742528
          163         164         165         166         167         168
    1   0.4779403   0.4823655   0.4856300   0.4870688   0.4887250   0.4933080
          169         170         171         172         173         174
    1   0.4965037   0.5063000   0.5064365   0.5163951   0.5192577   0.5276893
          175         176         177         178         179         180
    1   0.5339539   0.5356253   0.5386222   0.5458536   0.5491239   0.5592688
          181         182         183         184         185         186
    1   0.5618633   0.5638631   0.5704764   0.5784031   0.5841986   0.5954222
          187         188         189         190         191         192
    1   0.5969711   0.6064147   0.6145897   0.6197365   0.6229687   0.6248898
          193         194         195         196         197         198
    1   0.6295902   0.6422408   0.6507017   0.6528281   0.6572884   0.6720243
          199         200         201         202         203         204
    1   0.6726408   0.6780366   0.6796124   0.6869069   0.6924714   0.6947604
          205         206         207         208         209         210
    1   0.7092773   0.7166233   0.7210373   0.7238452   0.7295275   0.7336237
          211         212         213         214         215         216
    1   0.7349313   0.7451462   0.7623466   0.7671285   0.7699977   0.7757636
          217         218         219         220         221         222
    1   0.7848337   0.7909743   0.7987211   0.8006078   0.8031759   0.8074135
          223         224         225         226         227         228
    1   0.8170368   0.8194992   0.8252369   0.8271130   0.8361701   0.8398351
          229         230         231         232         233         234
    1   0.8466196   0.8518054   0.8542716   0.8701985   0.8763611   0.8872400
          235         236         237         238         239         240
    1   0.8982322   0.9076859   0.9119872   0.9189613   0.9285510   0.9323473
          241         242         243         244         245         246
    1   0.9418077   0.9513146   0.9586201   0.9768309   0.9915666   1.0030154
          247         248         249         250         251         252
    1   1.0149476   1.0339512   1.0409246   1.0538946   1.0624932   1.0726892
          253         254         255         256         257         258
    1   1.0815299   1.0869520   1.0940348   1.1035433   1.1078794   1.1238563
          259         260         261         262         263         264
    1   1.1345114   1.1396113   1.1518333   1.1669764   1.1680641   1.1735786
          265         266         267         268         269         270
    1   1.1769542   1.1833999   1.1927423   1.2025639   1.2135474   1.2215890
          271         272         273         274         275         276
    1   1.2258751   1.2382232   1.2531564   1.2555213   1.2759866   1.2794564
          277         278         279         280         281         282
    1   1.2959384   1.3093038   1.3150020   1.3256829   1.3397811   1.3492919
          283         284         285         286         287         288
    1   1.3542151   1.3552333   1.3684921   1.3736213   1.3840082   1.4089210
          289         290         291         292         293         294
    1   1.4124805   1.4159960   1.4244840   1.4406137   1.4563901   1.4653858
          295         296         297         298         299         300
    1   1.4679872   1.4742194   1.4911189   1.4931107   1.5129892   1.5197565
          301         302         303         304         305         306
    1   1.5292151   1.5332689   1.5466300   1.5523947   1.5635657   1.5643509
          307         308         309         310         311         312
    1   1.5768839   1.5885821   1.5922282   1.6017389   1.6057256   1.6176604
          313         314         315         316         317         318
    1   1.6292710   1.6468769   1.6523634   1.6613649   1.6726536   1.6768927
          319         320         321         322         323         324
    1   1.6904765   1.6996817   1.7004341   1.7066511   1.7188879   1.7310726
          325         326         327         328         329         330
    1   1.7441452   1.7504170   1.7578488   1.7635886   1.7667561   1.7729104
          331         332         333         334         335         336
    1   1.7781481   1.7894164   1.7968355   1.8066326   1.8223087   1.8326748
          337         338         339         340         341         342
    1   1.8547162   1.8595534   1.8630412   1.8792394   1.8951612   1.9075037
          343         344         345         346         347         348
    1   1.9130941   1.9314271   1.9377952   1.9440890   1.9593306   1.9626146
          349         350         351         352         353         354
    1   1.9685147   1.9791047   1.9896180   2.0096668   2.0156094   2.0375013
          355         356         357         358         359         360
    1   2.0427245   2.0459580   2.0620473   2.0642203   2.0681714   2.0950445
          361         362         363         364         365         366
    1   2.0994563   2.1028598   2.1179292   2.1251185   2.1476228   2.1572648
          367         368         369         370         371         372
    1   2.1760954   2.1780828   2.1902444   2.1952540   2.2010292   2.2049818
          373         374         375         376         377         378
    1   2.2106663   2.2176505   2.2240167   2.2343164   2.2440154   2.2542171
          379         380         381         382         383         384
    1   2.2759780   2.2930267   2.2950351   2.3073025   2.3194276   2.3260836
          385         386         387         388         389         390
    1   2.3328637   2.3581094   2.3700583   2.3767619   2.3773491   2.3837991
          391         392         393         394         395         396
    1   2.3972786   2.4132796   2.4201016   2.4429828   2.4511875   2.4651932
          397         398         399         400         401         402
    1   2.4881102   2.5036742   2.5178674   2.5253253   2.5431900   2.5559405
          403         404         405         406         407         408
    1   2.5696226   2.5820198   2.5872607   2.6022648   2.6085336   2.6235985
          409         410         411         412         413         414
    1   2.6353352   2.6379480   2.6602246   2.6653990   2.6775357   2.6836811
          415         416         417         418         419         420
    1   2.7035752   2.7060040   2.7139071   2.7181546   2.7251355   2.7264598
          421         422         423         424         425         426
    1   2.7444700   2.7622587   2.7641604   2.7691271   2.7769492   2.7849623
          427         428         429         430         431         432
    1   2.7955513   2.7988607   2.8035802   2.8150964   2.8206991   2.8264791
          433         434         435         436         437         438
    1   2.8301583   2.8494495   2.8520110   2.8543941   2.8677199   2.8762340
          439         440         441         442         443         444
    1   2.8827342   2.8963857   2.9011957   2.9076159   2.9196971   2.9329558
          445         446         447         448         449         450
    1   2.9395737   2.9477987   2.9523626   2.9679598   2.9746103   2.9797845
          451         452         453         454         455         456
    1   2.9871940   3.0015688   3.0084094   3.0132046   3.0181570   3.0270395
          457         458         459         460         461         462
    1   3.0360610   3.0517377   3.0579141   3.0679714   3.0828738   3.0850394
          463         464         465         466         467         468
    1   3.0949044   3.0978145   3.1068235   3.1085967   3.1288201   3.1338721
          469         470         471         472         473         474
    1   3.1398091   3.1573791   3.1589526   3.1647892   3.1681577   3.1824019
          475         476         477         478         479         480
    1   3.1839704   3.1892351   3.2012649   3.2082725   3.2144506   3.2238886
          481         482         483         484         485         486
    1   3.2314371   3.2351571   3.2511733   3.2570355   3.2603336   3.2762127
          487         488         489         490         491         492
    1   3.2827919   3.2887141   3.2959708   3.2996684   3.3095080   3.3207720
          493         494         495         496         497         498
    1   3.3340811   3.3488784   3.3498966   3.3621653   3.3656061   3.3685112
          499         500         501         502         503         504
    1   3.3729976   3.3795630   3.3883812   3.4005574   3.4072583   3.4130183
          505         506         507         508         509         510
    1   3.4148048   3.4311585   3.4385125   3.4457098   3.4475053   3.4505170
          511         512         513         514         515         516
    1   3.4673394   3.4726754   3.4786700   3.4884991   3.4958942   3.5102832
          517         518         519         520         521         522
    1   3.5172733   3.5202393   3.5212291   3.5297872   3.5381990   3.5408285
          523         524         525         526         527         528
    1   3.5517018   3.5588559   3.5677715   3.5741361   3.5865676   3.5886822
          529         530         531         532         533         534
    1   3.5918227   3.6087359   3.6177744   3.6292236   3.6525071   3.6583335
          535         536         537         538         539         540
    1   3.6711287   3.6772998   3.6833803   3.7020366   3.7081881   3.7112439
          541         542         543         544         545         546
    1   3.7456928   3.7557372   3.7572942   3.7792158   3.7951049   3.8175490
          547         548         549         550         551         552
    1   3.8307799   3.8532813   3.8741470   3.8899313   3.8996429   3.9285347
          553         554         555         556         557         558
    1   3.9568889   3.9592968   3.9758527   3.9836869   4.0098219   4.0150300
          559         560         561         562         563         564
    1   4.0291318   4.0474933   4.0524893   4.0619109   4.0693579   4.0897216
          565         566         567         568         569         570
    1   4.1010885   4.1104587   4.1273084   4.1577924   4.1828145   4.1892155
          571         572         573         574         575         576
    1   4.1982811   4.2091828   4.2145808   4.2446505   4.2532258   4.2616621
          577         578         579         580         581         582
    1   4.2661593   4.2768008   4.2811707   4.2934908   4.2979449   4.3065221
          583         584         585         586         587         588
    1   4.3114032   4.3584343   4.3729054   4.3898736   4.3959001   4.4242342
          589         590         591         592         593         594
    1   4.4372654   4.4623595   4.4990892   4.5004342   4.5206084   4.5376354
          595         596         597         598         599         600
    1   4.5717815   4.5907589   4.5979542   4.6113430   4.6292567   4.6561543
          601         602         603         604         605         606
    1   4.6691358   4.6794292   4.6839953   4.7110257   4.7234031   4.7905421
          607         608         609         610         611         612
    1   4.8007223   4.8132352   4.8251277   4.8682275   4.9126157   4.9330093
          613         614         615         616         617         618
    1   4.9410486   4.9571970   4.9727317   4.9754096   5.0016548   5.0146480
          619         620         621         622         623         624
    1   5.0314897   5.0595659   5.0945344   5.1395585   5.1989725   5.2237859
          625         626         627         628         629         630
    1   5.2710859   5.2946607   5.3065314   5.3111762   5.3204372   5.3206549
          631         632         633         634         635         636
    1   5.3264324   5.3490716   5.3599825   5.3896820   5.4416798   5.4699525
          637         638         639         640         641         642
    1   5.4912187   5.5202502   5.5361394   5.5395787   5.5452807   5.5515402
          643         644         645         646         647         648
    1   5.5810934   5.5871710   5.5949249   5.6385238   5.6760149   5.6779916
          649         650         651         652         653         654
    1   5.8141860   5.8293510   5.8412486   5.8441649   5.8486025   5.8855220
          655         656         657         658         659         660
    1   6.0114721   6.0425435   6.0639957   6.0856486   6.1356202   6.1923987
          661         662         663         664         665         666
    1   6.2914532   6.3769817   6.3974681   6.4049338   6.4418876   6.4595651
          667         668         669         670         671         672
    1   6.4684138   6.4727173   6.4778171   6.4860596   6.4974841   6.6434344
          673         674         675         676         677         678
    1   6.6700939   6.7303521   6.7470748   6.7757899   6.7778354   6.7864050
          679         680         681         682         683         684
    1   6.8889249   6.8977443   6.9193359   6.9228952   6.9508768   6.9678879
          685         686         687         688         689         690
    1   7.0110685   7.0899894   7.1058722   7.1481833   7.2256875   7.2516314
          691         692         693         694         695         696
    1   7.3715608   7.3800575   7.4008676   7.4947408   7.5494802  22.3579986
          697         698         699         700         701         702
    1  22.5329625  22.7445342  22.7859462  22.7975139  22.8302511  22.8839598
          703         704         705         706         707         708
    1  22.9506920  22.9627714  23.0284066  23.0833293  23.2112104  23.2578814
          709         710         711         712         713         714
    1  23.4953534  23.6797259  44.0858172  44.1109273  44.1429519  44.1728161
          715
    1  44.6369917
 SCF time:   CPU 4318.27s  wall 359.00s 
 DFT Correlation          Energy =  -5.73477285482305
 DFT Exchange             Energy = -87.83263321077520
 HF Exchange              Energy = -34.28058995676506
 One-Electron             Energy = -4135.24444254307309
 SCRF wf-dependent energy Energy =  -0.35100978166679
 Total Coulomb            Energy = 1881.47922860737003
 Nuclear repulsion Energy = 1428.29127330082565

************** Final PCM Free Energy Summary **************
 G_electrostatic  =      -0.04616388 hartree =     -28.96827071 kcal/mol
 G_cavitation     =       0.00000000 hartree =       0.00000000 kcal/mol
 G_dispersion     =       0.00000000 hartree =       0.00000000 kcal/mol
 G_repulsion      =       0.00000000 hartree =       0.00000000 kcal/mol
 --------------------------------------------------
 Non-electrostatic Free Energy =       0.00000000 hartree =       0.00000000 kcal/mol
 Total                         =      -0.04616388 hartree =     -28.96827071 kcal/mol
 --------------------------------------------------
 SCF Energy (H0 + V/2)                       =    -953.67294644 
 Solute Internal Energy (H0)                 =    -953.62678256 
 Total Free Energy (H0 + V/2 + non-elec)     =    -953.67294644 hartree
                                             = -598438.80904804 kcal/mol
***********************************************************

 SCF   energy =  -953.67294644
 Total energy =  -953.67294644
 MAX_CIS_SUBSPACE fits in available memory
 Direct TDDFT/TDA calculation will be performed
 Exchange:     0.1900 Hartree-Fock + 0.3500 B88 + 0.4600 muB88 + LR-HF
 Correlation:  0.1900 VWN5 + 0.8100 LYP
 Using SG-1 standard quadrature grid
 Triplet excitation energies requested
 Singlet excitation energies requested
 Adding PCM contribution to the XC response (LR-PCM)
 Optical dielectric constant (eps_inf) =  1.78
 CIS energy converged when residual is below 10e- 6
 ---------------------------------------------------
 Iter    Rts Conv    Rts Left    Ttl Dev     Max Dev
 ---------------------------------------------------
   1         0           7      0.001004    0.000158
   2         0           7      0.000432    0.000098
   3         0           7      0.000184    0.000053
   4         0           7      0.000127    0.000045
   5         1           6      0.000167    0.000066
   6         2           5      0.000095    0.000064
   7         3           4      0.000124    0.000063
   8         4           3      0.000048    0.000024
   9         5           2      0.000017    0.000008
  10         5           2      0.000006    0.000002
  11         7           0      0.000002    0.000001    Roots Converged
 ---------------------------------------------------
 Triplets done: starting singlet calculation
 ---------------------------------------------------
 Iter    Rts Conv    Rts Left    Ttl Dev     Max Dev
 ---------------------------------------------------
  12         0           7      0.002288    0.000448
  13         0           7      0.000693    0.000136
  14         0           7      0.000340    0.000068
  15         0           7      0.000188    0.000059
  16         0           7      0.000153    0.000092
  17         2           5      0.000116    0.000091
  18         3           4      0.000055    0.000043
  19         5           2      0.000029    0.000023
  20         5           2      0.000015    0.000011
  21         6           1      0.000009    0.000005
  22         6           1      0.000006    0.000003
  23         6           1      0.000006    0.000002
  24         7           0      0.000005    0.000001    Roots Converged
 ---------------------------------------------------
 
 ---------------------------------------------------
         TDDFT/TDA Excitation Energies              
 ---------------------------------------------------

 Excited state   1: excitation energy (eV) =       1.6157
 Total energy for state   1:                  -953.61357099 au
    Multiplicity: Triplet
    Trans. Mom.:  0.0000 X   0.0000 Y   0.0000 Z
    Strength   :     0.0000000000
    D(   67) --> V(    1) amplitude = -0.1327
    D(   69) --> V(    1) amplitude = -0.0831
    D(   69) --> V(    2) amplitude =  0.0744
    D(   70) --> V(    1) amplitude =  0.9659

 Excited state   2: excitation energy (eV) =       2.5688
 Total energy for state   2:                  -953.57854347 au
    Multiplicity: Singlet
    Trans. Mom.:  1.9832 X   1.6718 Y  -0.3103 Z
    Strength   :     0.4294905363
    D(   69) --> V(    1) amplitude =  0.1242
    D(   70) --> V(    1) amplitude =  0.9727
    D(   70) --> V(    2) amplitude =  0.0851

 Excited state   3: excitation energy (eV) =       2.7162
 Total energy for state   3:                  -953.57312619 au
    Multiplicity: Triplet
    Trans. Mom.:  0.0000 X   0.0000 Y   0.0000 Z
    Strength   :     0.0000000000
    D(   64) --> V(    1) amplitude = -0.0887
    D(   65) --> V(    1) amplitude = -0.1339
    D(   67) --> V(    1) amplitude =  0.0779
    D(   67) --> V(    2) amplitude =  0.0933
    D(   67) --> V(    7) amplitude = -0.0833
    D(   69) --> V(    1) amplitude =  0.8867
    D(   70) --> V(    1) amplitude =  0.0870
    D(   70) --> V(    2) amplitude =  0.3324
    D(   70) --> V(   10) amplitude = -0.0968

 Excited state   4: excitation energy (eV) =       3.5411
 Total energy for state   4:                  -953.54281234 au
    Multiplicity: Triplet
    Trans. Mom.:  0.0000 X   0.0000 Y   0.0000 Z
    Strength   :     0.0000000000
    D(   66) --> V(    3) amplitude = -0.0906
    D(   67) --> V(    1) amplitude = -0.4982
    D(   67) --> V(    7) amplitude = -0.1004
    D(   68) --> V(    1) amplitude =  0.2380
    D(   69) --> V(    1) amplitude = -0.1824
    D(   69) --> V(    2) amplitude = -0.2580
    D(   69) --> V(    7) amplitude =  0.2047
    D(   70) --> V(    1) amplitude = -0.0827
    D(   70) --> V(    2) amplitude =  0.6366
    D(   70) --> V(    7) amplitude =  0.2131
    D(   70) --> V(   10) amplitude =  0.1571

 Excited state   5: excitation energy (eV) =       3.5570
 Total energy for state   5:                  -953.54222815 au
    Multiplicity: Triplet
    Trans. Mom.:  0.0000 X   0.0000 Y   0.0000 Z
    Strength   :     0.0000000000
    D(   67) --> V(    1) amplitude =  0.1182
    D(   68) --> V(    1) amplitude =  0.9074
    D(   68) --> V(    2) amplitude =  0.1321
    D(   68) --> V(    7) amplitude = -0.2011
    D(   68) --> V(   10) amplitude = -0.1537
    D(   68) --> V(   26) amplitude = -0.0790
    D(   70) --> V(    2) amplitude = -0.1829
    D(   70) --> V(    7) amplitude = -0.0717

 Excited state   6: excitation energy (eV) =       3.5835
 Total energy for state   6:                  -953.54125436 au
    Multiplicity: Singlet
    Trans. Mom.: -2.0501 X  -1.4492 Y  -0.0851 Z
    Strength   :     0.5540152233
    D(   64) --> V(    1) amplitude = -0.0813
    D(   67) --> V(    1) amplitude =  0.0756
    D(   69) --> V(    1) amplitude =  0.9589
    D(   70) --> V(    1) amplitude = -0.1282
    D(   70) --> V(    2) amplitude =  0.1186

 Excited state   7: excitation energy (eV) =       3.7000
 Total energy for state   7:                  -953.53697324 au
    Multiplicity: Triplet
    Trans. Mom.:  0.0000 X   0.0000 Y   0.0000 Z
    Strength   :     0.0000000000
    D(   61) --> V(    1) amplitude = -0.1058
    D(   64) --> V(    1) amplitude = -0.1339
    D(   66) --> V(    3) amplitude =  0.1041
    D(   67) --> V(    1) amplitude =  0.5455
    D(   67) --> V(    2) amplitude = -0.1595
    D(   67) --> V(    7) amplitude =  0.0963
    D(   69) --> V(    1) amplitude = -0.2268
    D(   69) --> V(    2) amplitude =  0.3999
    D(   69) --> V(    3) amplitude = -0.0712
    D(   69) --> V(   26) amplitude =  0.0767
    D(   70) --> V(    2) amplitude =  0.4200
    D(   70) --> V(    7) amplitude =  0.3982

 Excited state   8: excitation energy (eV) =       3.7434
 Total energy for state   8:                  -953.53537863 au
    Multiplicity: Singlet
    Trans. Mom.:  0.1640 X   0.1344 Y   0.0195 Z
    Strength   :     0.0041595619
    D(   68) --> V(    1) amplitude =  0.9523
    D(   68) --> V(    2) amplitude =  0.1425
    D(   68) --> V(    7) amplitude = -0.1774
    D(   68) --> V(   10) amplitude = -0.1205

 Excited state   9: excitation energy (eV) =       4.1172
 Total energy for state   9:                  -953.52164115 au
    Multiplicity: Triplet
    Trans. Mom.:  0.0000 X   0.0000 Y   0.0000 Z
    Strength   :     0.0000000000
    D(   54) --> V(    1) amplitude = -0.1028
    D(   58) --> V(    1) amplitude =  0.0808
    D(   64) --> V(    1) amplitude = -0.4178
    D(   64) --> V(    2) amplitude = -0.1004
    D(   65) --> V(    1) amplitude =  0.6701
    D(   65) --> V(    7) amplitude = -0.0739
    D(   67) --> V(    1) amplitude = -0.0719
    D(   67) --> V(    2) amplitude =  0.1746
    D(   69) --> V(    1) amplitude =  0.1310
    D(   69) --> V(    2) amplitude =  0.2076
    D(   69) --> V(    7) amplitude =  0.1993
    D(   70) --> V(    2) amplitude = -0.1575
    D(   70) --> V(    7) amplitude =  0.1952
    D(   70) --> V(   10) amplitude =  0.2565
    D(   70) --> V(   12) amplitude =  0.0752
    D(   70) --> V(   13) amplitude = -0.0843
    D(   70) --> V(   26) amplitude =  0.1023

 Excited state  10: excitation energy (eV) =       4.2199
 Total energy for state  10:                  -953.51786822 au
    Multiplicity: Triplet
    Trans. Mom.:  0.0000 X   0.0000 Y   0.0000 Z
    Strength   :     0.0000000000
    D(   58) --> V(    1) amplitude = -0.0776
    D(   64) --> V(    1) amplitude =  0.0715
    D(   64) --> V(    7) amplitude = -0.0778
    D(   65) --> V(    1) amplitude = -0.4731
    D(   65) --> V(    2) amplitude = -0.1434
    D(   65) --> V(   10) amplitude = -0.0915
    D(   66) --> V(    1) amplitude = -0.1391
    D(   66) --> V(    2) amplitude =  0.0960
    D(   66) --> V(    3) amplitude =  0.1613
    D(   67) --> V(    1) amplitude = -0.3072
    D(   67) --> V(    3) amplitude = -0.0878
    D(   67) --> V(    7) amplitude =  0.1086
    D(   69) --> V(    1) amplitude =  0.1209
    D(   69) --> V(    2) amplitude =  0.3593
    D(   69) --> V(    3) amplitude =  0.1466
    D(   69) --> V(    7) amplitude =  0.1045
    D(   69) --> V(   10) amplitude =  0.2012
    D(   70) --> V(    2) amplitude = -0.2689
    D(   70) --> V(    3) amplitude = -0.0884
    D(   70) --> V(    7) amplitude =  0.3267
    D(   70) --> V(   10) amplitude =  0.2705

 Excited state  11: excitation energy (eV) =       4.4901
 Total energy for state  11:                  -953.50793890 au
    Multiplicity: Singlet
    Trans. Mom.:  0.9631 X   0.5290 Y   0.2288 Z
    Strength   :     0.1385947975
    D(   65) --> V(    1) amplitude =  0.0909
    D(   67) --> V(    1) amplitude =  0.4387
    D(   69) --> V(    1) amplitude = -0.1430
    D(   69) --> V(    2) amplitude =  0.1616
    D(   69) --> V(   10) amplitude = -0.1290
    D(   70) --> V(    2) amplitude =  0.7968
    D(   70) --> V(    7) amplitude =  0.2346

 Excited state  12: excitation energy (eV) =       4.7037
 Total energy for state  12:                  -953.50008985 au
    Multiplicity: Singlet
    Trans. Mom.:  0.0342 X   0.0556 Y  -0.1120 Z
    Strength   :     0.0019366987
    D(   66) --> V(    1) amplitude =  0.7707
    D(   66) --> V(    2) amplitude = -0.2301
    D(   66) --> V(    7) amplitude =  0.1358
    D(   67) --> V(    3) amplitude = -0.1747
    D(   69) --> V(    2) amplitude =  0.0975
    D(   69) --> V(    3) amplitude =  0.3467
    D(   70) --> V(    3) amplitude = -0.3922

 Excited state  13: excitation energy (eV) =       4.9573
 Total energy for state  13:                  -953.49076928 au
    Multiplicity: Singlet
    Trans. Mom.: -0.3887 X   0.4655 Y  -1.1319 Z
    Strength   :     0.2002548081
    D(   64) --> V(    1) amplitude =  0.0901
    D(   65) --> V(    1) amplitude = -0.1126
    D(   66) --> V(    3) amplitude =  0.1118
    D(   67) --> V(    1) amplitude =  0.8339
    D(   69) --> V(    2) amplitude =  0.1091
    D(   69) --> V(   10) amplitude =  0.1016
    D(   70) --> V(    2) amplitude = -0.4194
    D(   70) --> V(   10) amplitude =  0.1024

 Excited state  14: excitation energy (eV) =       5.1623
 Total energy for state  14:                  -953.48323666 au
    Multiplicity: Singlet
    Trans. Mom.: -0.0622 X   0.0233 Y  -0.0656 Z
    Strength   :     0.0011024262
    D(   66) --> V(    1) amplitude =  0.1434
    D(   69) --> V(    5) amplitude = -0.1288
    D(   69) --> V(    8) amplitude = -0.0827
    D(   70) --> V(    3) amplitude =  0.2657
    D(   70) --> V(    4) amplitude =  0.8058
    D(   70) --> V(    5) amplitude = -0.2909
    D(   70) --> V(    9) amplitude = -0.2357
    D(   70) --> V(   11) amplitude = -0.2157
    D(   70) --> V(   15) amplitude = -0.0742
 
 ---------------------------------------------------

 Direct TDDFT calculation will be performed
 Exchange:     0.1900 Hartree-Fock + 0.3500 B88 + 0.4600 muB88 + LR-HF
 Correlation:  0.1900 VWN5 + 0.8100 LYP
 Using SG-1 standard quadrature grid
 ---------------------------------------------------
 Iter    Rts Conv    Rts Left    Ttl Dev     Max Dev
 ---------------------------------------------------
   1         0           7      0.001123    0.000184
   2         0           7      0.000345    0.000073
   3         0           7      0.000203    0.000045
   4         0           7      0.000118    0.000034
   5         0           7      0.000086    0.000033
   6         1           6      0.000041    0.000018
   7         3           4      0.000030    0.000014
   8         5           2      0.000013    0.000006
   9         5           2      0.000009    0.000004
  10         6           1      0.000006    0.000001
  11         7           0      0.000005    0.000001    Roots Converged
 ---------------------------------------------------
 Triplets done: starting singlet calculation
 ---------------------------------------------------
 Iter    Rts Conv    Rts Left    Ttl Dev     Max Dev
 ---------------------------------------------------
  12         0           7      0.001221    0.000264
  13         0           7      0.000530    0.000238
  14         0           7      0.000248    0.000100
  15         0           7      0.000145    0.000056
  16         0           7      0.000091    0.000032
  17         1           6      0.000052    0.000021
  18         1           6      0.000030    0.000013
  19         3           4      0.000019    0.000007
  20         5           2      0.000009    0.000004
  21         5           2      0.000007    0.000002
  22         5           2      0.000006    0.000001
  23         6           1      0.000004    0.000001
  24         6           1      0.000004    0.000001
  25         7           0      0.000004    0.000001    Roots Converged
 ---------------------------------------------------
 
 ---------------------------------------------------
             TDDFT Excitation Energies              
 ---------------------------------------------------

 Excited state   1: excitation energy (eV) =        1.3904
 Total energy for state   1:                  -953.62184855 au
    Multiplicity: Triplet 
    Trans. Mom.:  0.0000 X   0.0000 Y   0.0000 Z
    Strength   :     0.0000000000
    X: D(   64) --> V(    1) amplitude =  0.0814
    X: D(   65) --> V(    1) amplitude =  0.0717
    X: D(   67) --> V(    1) amplitude = -0.1514
    X: D(   69) --> V(    1) amplitude = -0.1430
    X: D(   69) --> V(    2) amplitude =  0.0882
    X: D(   70) --> V(    1) amplitude =  0.9781
    Y: D(   70) --> V(    1) amplitude =  0.2048

 Excited state   2: excitation energy (eV) =        2.4158
 Total energy for state   2:                  -953.58416620 au
    Multiplicity: Singlet 
    Trans. Mom.:  1.8546 X   1.5403 Y  -0.2559 Z
    Strength   :     0.3478589122
    X: D(   69) --> V(    1) amplitude =  0.0897
    X: D(   70) --> V(    1) amplitude =  0.9862
    X: D(   70) --> V(    2) amplitude =  0.0890

 Excited state   3: excitation energy (eV) =        2.5450
 Total energy for state   3:                  -953.57941759 au
    Multiplicity: Triplet 
    Trans. Mom.:  0.0000 X   0.0000 Y   0.0000 Z
    Strength   :     0.0000000000
    X: D(   64) --> V(    1) amplitude = -0.0997
    X: D(   65) --> V(    1) amplitude = -0.1166
    X: D(   66) --> V(    3) amplitude = -0.1181
    X: D(   67) --> V(    2) amplitude =  0.1006
    X: D(   67) --> V(    7) amplitude = -0.1085
    X: D(   69) --> V(    1) amplitude =  0.8511
    Y: D(   69) --> V(    1) amplitude =  0.0873
    X: D(   69) --> V(    7) amplitude =  0.0759
    X: D(   69) --> V(   10) amplitude = -0.0801
[...]
      XZZZ     106.4746   YZZZ      18.5541   ZZZZ   -1343.9700
    5th-Order Moments (Debye-Ang^4)
       500   20824.4081    410   -6332.1831    320     178.1900
       230   -4330.7499    140   -5587.6507    050  -38810.4535
       401   -1345.3411    311    -620.0593    221    1064.7425
       131    1387.7939    041    2671.3866    302    4672.8111
       212   -1239.3537    122   -1139.3602    032   -5093.5825
       203    -142.1387    113    -457.2653    023    -409.3321
       104    2471.2745    014   -1773.4682    005   -2284.2450
 -----------------------------------------------------------------
 -----------------------------------------------------------------
                 RPA Excited-State Multipoles, State    4   
                  LMN = < X^L Y^M Z^N >
 -----------------------------------------------------------------
    Charge (ESU x 10^10)
                 0.0000
    Dipole Moment (Debye)
         X       5.4502      Y       5.5025      Z      -0.9000
       Tot       7.7969
    Quadrupole Moments (Debye-Ang)
        XX    -107.6538     XY      11.1750     YY     -99.4315
        XZ      30.3055     YZ      18.6117     ZZ    -111.1974
    Octopole Moments (Debye-Ang^2)
       XXX     331.1784    XXY    -168.5618    XYY     250.3593
       YYY    -571.1250    XXZ    -135.5193    XYZ       0.9482
       YYZ       3.9897    XZZ     182.5348    YZZ    -200.3077
       ZZZ    -108.3153
    Hexadecapole Moments (Debye-Ang^3)
      XXXX   -4639.9355   XXXY    -527.3101   XXYY   -1558.8008
      XYYY    -298.6357   YYYY   -5118.5509   XXXZ     714.3288
      XXYZ     365.3468   XYYZ     327.4952   YYYZ     407.0276
      XXZZ   -1429.8113   XYZZ    -352.3562   YYZZ   -1190.9072
      XZZZ     117.9293   YZZZ      25.4732   ZZZZ   -1336.4720
    5th-Order Moments (Debye-Ang^4)
       500   21400.9206    410   -6091.0490    320     263.3322
       230   -4314.3123    140   -5569.8143    050  -38813.3450
       401   -1924.3243    311    -634.3405    221    1054.1291
       131    1357.8726    041    2665.2828    302    4587.1166
       212   -1214.9888    122   -1141.9160    032   -5101.9981
       203    -224.0448    113    -474.8405    023    -407.4476
       104    2452.0946    014   -1763.7542    005   -2277.8217
 -----------------------------------------------------------------
 -----------------------------------------------------------------
                 RPA Excited-State Multipoles, State    5   
                  LMN = < X^L Y^M Z^N >
 -----------------------------------------------------------------
    Charge (ESU x 10^10)
                 0.0000
    Dipole Moment (Debye)
         X       6.1057      Y       6.9698      Z      -2.4512
       Tot       9.5847
    Quadrupole Moments (Debye-Ang)
        XX     -98.5075     XY      18.2546     YY     -89.2915
        XZ      33.2027     YZ      17.7679     ZZ    -113.8727
    Octopole Moments (Debye-Ang^2)
       XXX     303.1408    XXY    -158.4848    XYY     279.5540
       YYY    -514.5860    XXZ    -139.0184    XYZ       1.5459
       YYZ       0.2675    XZZ     193.3839    YZZ    -198.3438
       ZZZ    -114.4611
    Hexadecapole Moments (Debye-Ang^3)
      XXXX   -4431.7835   XXXY    -469.1788   XXYY   -1483.9526
      XYYY    -149.6366   YYYY   -4812.3685   XXXZ     707.0216
      XXYZ     366.0255   XYYZ     330.2225   YYYZ     396.4116
      XXZZ   -1454.0746   XYZZ    -343.7191   YYZZ   -1182.0717
      XZZZ     136.5579   YZZZ      26.4648   ZZZZ   -1352.9614
    5th-Order Moments (Debye-Ang^4)
       500   20545.8520    410   -6067.4386    320     451.8144
       230   -3935.7981    140   -4789.5568    050  -37141.2039
       401   -1828.3513    311    -663.9764    221    1027.2806
       131    1338.2626    041    2604.5977    302    4694.3270
       212   -1207.5743    122   -1107.5656    032   -5047.2520
       203    -253.3046    113    -465.2953    023    -407.0786
       104    2525.7878    014   -1751.9603    005   -2320.6888
 -----------------------------------------------------------------
 -----------------------------------------------------------------
                 RPA Excited-State Multipoles, State    6   
                  LMN = < X^L Y^M Z^N >
 -----------------------------------------------------------------
    Charge (ESU x 10^10)
                 0.0000
    Dipole Moment (Debye)
         X       5.9064      Y       5.0183      Z       0.3727
       Tot       7.7593
    Quadrupole Moments (Debye-Ang)
        XX    -112.4629     XY      13.6229     YY     -97.3525
        XZ      23.4496     YZ      15.7694     ZZ    -108.4376
    Octopole Moments (Debye-Ang^2)
       XXX     372.9966    XXY    -174.0993    XYY     249.8146
       YYY    -564.6976    XXZ    -103.5833    XYZ       9.3271
       YYZ       4.3272    XZZ     174.1551    YZZ    -203.0800
       ZZZ     -99.6783
    Hexadecapole Moments (Debye-Ang^3)
      XXXX   -4915.4072   XXXY    -493.0200   XXYY   -1539.9180
      XYYY    -284.9376   YYYY   -5080.8275   XXXZ     564.8515
      XXYZ     339.2450   XYYZ     324.7974   YYYZ     401.1926
      XXZZ   -1407.3434   XYZZ    -338.1266   YYZZ   -1181.1661
      XZZZ      76.3750   YZZZ      14.4507   ZZZZ   -1320.4864
    5th-Order Moments (Debye-Ang^4)
       500   23142.3260    410   -6238.5015    320     235.7161
       230   -4285.9044    140   -5522.6123    050  -38642.1759
       401   -1192.4973    311    -536.2767    221    1086.0305
       131    1391.0939    041    2674.7601    302    4556.4792
       212   -1266.2779    122   -1154.5594    032   -5084.0420
       203     -46.3960    113    -441.9340    023    -396.6991
       104    2395.7763    014   -1782.5061    005   -2220.4993
 -----------------------------------------------------------------
 -----------------------------------------------------------------
                 RPA Excited-State Multipoles, State    7   
                  LMN = < X^L Y^M Z^N >
 -----------------------------------------------------------------
    Charge (ESU x 10^10)
                 0.0000
    Dipole Moment (Debye)
         X      -0.1111      Y      -1.6930      Z       3.8474
       Tot       4.2049
    Quadrupole Moments (Debye-Ang)
        XX     -90.6793     XY      24.1964     YY    -107.3125
        XZ       5.3219     YZ       8.5234     ZZ    -102.7992
    Octopole Moments (Debye-Ang^2)
       XXX     263.8800    XXY    -242.1080    XYY     220.2189
       YYY    -626.6604    XXZ     -26.3902    XYZ      34.2869
       YYZ      10.5030    XZZ     141.3197    YZZ    -222.6657
       ZZZ     -82.2152
    Hexadecapole Moments (Debye-Ang^3)
      XXXX   -4488.9581   XXXY    -283.3971   XXYY   -1545.2179
      XYYY    -354.5142   YYYY   -5339.7035   XXXZ     250.5288
      XXYZ     247.2317   XYYZ     296.7323   YYYZ     390.3976
      XXZZ   -1269.3951   XYZZ    -277.7449   YYZZ   -1176.8020
      XZZZ      -9.3595   YZZZ     -25.1449   ZZZZ   -1285.0897
    5th-Order Moments (Debye-Ang^4)
       500   21101.1996    410   -7396.4404    320    -183.8667
       230   -4744.0754    140   -6132.4570    050  -40051.7473
       401     134.1648    311    -128.2008    221    1254.2969
       131    1476.3077    041    2729.1060    302    3976.7893
       212   -1511.4614    122   -1227.4549    032   -5154.3311
       203     311.9724    113    -304.4423    023    -365.3464
       104    2212.6878    014   -1886.2428    005   -2130.9787
 -----------------------------------------------------------------
 -----------------------------------------------------------------
                 RPA Excited-State Multipoles, State    8   
                  LMN = < X^L Y^M Z^N >
 -----------------------------------------------------------------
    Charge (ESU x 10^10)
                 0.0000
    Dipole Moment (Debye)
         X      -1.1735      Y      -2.7024      Z       4.1653
       Tot       5.1019
    Quadrupole Moments (Debye-Ang)
        XX     -86.2343     XY      25.7266     YY    -108.9103
        XZ       3.2659     YZ       7.5473     ZZ    -102.3820
    Octopole Moments (Debye-Ang^2)
       XXX     241.8901    XXY    -250.8106    XYY     216.9485
       YYY    -634.9975    XXZ     -17.0537    XYZ      37.6013
       YYZ      10.9916    XZZ     137.5878    YZZ    -225.1859
       ZZZ     -81.3424
    Hexadecapole Moments (Debye-Ang^3)
      XXXX   -4396.3422   XXXY    -258.2654   XXYY   -1547.2758
      XYYY    -363.8266   YYYY   -5375.5071   XXXZ     211.9095
      XXYZ     235.8352   XYYZ     294.6213   YYYZ     389.6358
      XXZZ   -1252.2423   XYZZ    -270.3965   YYZZ   -1177.0732
      XZZZ     -16.7315   YZZZ     -30.2746   ZZZZ   -1284.6649
    5th-Order Moments (Debye-Ang^4)
       500   20660.4235    410   -7530.4264    320    -230.7288
       230   -4797.2081    140   -6204.7771    050  -40234.9190
       401     298.3972    311     -78.7445    221    1271.2046
       131    1486.8142    041    2735.9960    302    3901.5839
       212   -1540.5505    122   -1234.7362    032   -5163.1849
       203     347.1649    113    -287.1538    023    -363.4602
       104    2200.1999    014   -1899.5398    005   -2135.6731
 -----------------------------------------------------------------
 -----------------------------------------------------------------
                 RPA Excited-State Multipoles, State    9   
                  LMN = < X^L Y^M Z^N >
 -----------------------------------------------------------------
    Charge (ESU x 10^10)
                 0.0000
    Dipole Moment (Debye)
         X       7.4611      Y       5.6794      Z       1.0633
       Tot       9.4368
    Quadrupole Moments (Debye-Ang)
        XX    -121.7936     XY       9.6233     YY    -100.8673
        XZ      26.3719     YZ      19.8181     ZZ    -107.9071
    Octopole Moments (Debye-Ang^2)
       XXX     407.4867    XXY    -168.5778    XYY     247.3300
       YYY    -579.2085    XXZ    -117.9487    XYZ       0.3968
       YYZ       6.0032    XZZ     184.6493    YZZ    -195.4414
       ZZZ     -95.6306
    Hexadecapole Moments (Debye-Ang^3)
      XXXX   -5054.2188   XXXY    -531.1245   XXYY   -1573.1969
      XYYY    -319.5914   YYYY   -5166.1949   XXXZ     638.8859
      XXYZ     374.4474   XYYZ     329.4482   YYYZ     411.9838
      XXZZ   -1447.0703   XYZZ    -351.4840   YYZZ   -1180.8744
      XZZZ     100.6953   YZZZ      39.0991   ZZZZ   -1310.3016
    5th-Order Moments (Debye-Ang^4)
       500   23534.7959    410   -6176.2192    320     245.0411
       230   -4381.5843    140   -5690.7710    050  -39086.3133
       401   -1531.4295    311    -655.6877    221    1078.4667
       131    1379.9570    041    2693.1430    302    4717.8762
       212   -1215.0704    122   -1138.8610    032   -5075.6744
       203    -141.9807    113    -477.7481    023    -380.4378
       104    2464.6885    014   -1719.7915    005   -2181.9301
 -----------------------------------------------------------------
 -----------------------------------------------------------------
                 RPA Excited-State Multipoles, State   10   
                  LMN = < X^L Y^M Z^N >
 -----------------------------------------------------------------
    Charge (ESU x 10^10)
                 0.0000
    Dipole Moment (Debye)
         X       7.0506      Y       6.0024      Z       0.1002
       Tot       9.2601
    Quadrupole Moments (Debye-Ang)
        XX    -115.6071     XY      10.1170     YY     -99.6764
        XZ      30.4911     YZ      20.1627     ZZ    -108.1619
    Octopole Moments (Debye-Ang^2)
       XXX     373.8505    XXY    -162.2576    XYY     253.3438
       YYY    -569.8784    XXZ    -135.5466    XYZ      -0.5926
       YYZ       4.6321    XZZ     185.9811    YZZ    -193.0310
       ZZZ     -99.8285
    Hexadecapole Moments (Debye-Ang^3)
      XXXX   -4859.1242   XXXY    -550.1373   XXYY   -1565.3519
      XYYY    -297.9891   YYYY   -5118.2089   XXXZ     716.4413
      XXYZ     375.3079   XYYZ     331.5907   YYYZ     409.3224
      XXZZ   -1444.8198   XYZZ    -355.8084   YYZZ   -1179.1708
      XZZZ     120.0667   YZZZ      43.2054   ZZZZ   -1315.1021
    5th-Order Moments (Debye-Ang^4)
       500   22499.1313    410   -6041.7488    320     263.1024
       230   -4330.2144    140   -5580.0364    050  -38827.2565
       401   -1902.6034    311    -662.7147    221    1055.7278
       131    1366.1648    041    2668.0196    302    4684.8650
       212   -1191.8679    122   -1131.8322    032   -5063.4863
       203    -220.5056    113    -483.8812    023    -380.1163
       104    2482.4636    014   -1708.1097    005   -2212.4519
 -----------------------------------------------------------------
 -----------------------------------------------------------------
                 RPA Excited-State Multipoles, State   11   
                  LMN = < X^L Y^M Z^N >
 -----------------------------------------------------------------
    Charge (ESU x 10^10)
                 0.0000
    Dipole Moment (Debye)
         X       4.7339      Y       4.5565      Z      -0.2835
       Tot       6.5766
    Quadrupole Moments (Debye-Ang)
        XX    -110.8809     XY      10.4844     YY    -100.6798
        XZ      24.5330     YZ      14.7240     ZZ    -108.9165
    Octopole Moments (Debye-Ang^2)
       XXX     367.0623    XXY    -170.6578    XYY     241.4224
       YYY    -581.3081    XXZ    -107.1194    XYZ      10.4382
       YYZ       1.5881    XZZ     173.4003    YZZ    -203.9965
       ZZZ    -102.1309
    Hexadecapole Moments (Debye-Ang^3)
      XXXX   -4926.1934   XXXY    -525.8144   XXYY   -1548.0949
      XYYY    -320.8506   YYYY   -5165.1556   XXXZ     576.5417
      XXYZ     335.7475   XYYZ     327.4298   YYYZ     393.3742
      XXZZ   -1407.0163   XYZZ    -341.8958   YYZZ   -1186.4005
      XZZZ      79.7159   YZZZ      11.0795   ZZZZ   -1324.4399
    5th-Order Moments (Debye-Ang^4)
       500   23247.9750    410   -6178.8046    320     168.1869
       230   -4346.2184    140   -5692.7737    050  -39080.2925
       401   -1236.5237    311    -528.2488    221    1075.9580
       131    1397.1746    041    2652.7216    302    4557.5110
       212   -1258.8340    122   -1161.1302    032   -5105.0171
       203     -53.6831    113    -438.5177    023    -405.8396
       104    2395.7944    014   -1788.2577    005   -2235.6011
 -----------------------------------------------------------------
 -----------------------------------------------------------------
                 RPA Excited-State Multipoles, State   12   
                  LMN = < X^L Y^M Z^N >
 -----------------------------------------------------------------
    Charge (ESU x 10^10)
                 0.0000
    Dipole Moment (Debye)
         X      11.8418      Y      10.3669      Z      -1.1867
       Tot      15.7832
    Quadrupole Moments (Debye-Ang)
        XX    -122.5775     XY      20.3379     YY     -77.6289
        XZ      30.3867     YZ      18.4991     ZZ    -110.9850
    Octopole Moments (Debye-Ang^2)
       XXX     429.4556    XXY    -152.5049    XYY     291.3591
       YYY    -469.2757    XXZ    -125.4271    XYZ       5.2585
       YYZ       6.2073    XZZ     193.9772    YZZ    -191.0825
       ZZZ    -108.9965
    Hexadecapole Moments (Debye-Ang^3)
      XXXX   -5081.0919   XXXY    -506.1482   XXYY   -1517.8658
      XYYY    -150.0347   YYYY   -4671.6397   XXXZ     680.5724
      XXYZ     387.2742   XYYZ     356.7647   YYYZ     433.7909
      XXZZ   -1457.3168   XYZZ    -335.5695   YYZZ   -1150.7399
      XZZZ     115.8071   YZZZ      26.7501   ZZZZ   -1341.9257
    5th-Order Moments (Debye-Ang^4)
       500   23727.3559    410   -6060.7000    320     398.0778
       230   -4120.9625    140   -4985.0398    050  -36866.9974
       401   -1643.4888    311    -630.3626    221    1119.9497
       131    1492.7484    041    2839.7424    302    4781.6092
       212   -1180.5353    122   -1059.5524    032   -4908.7899
       203    -187.0316    113    -470.5894    023    -400.1514
       104    2495.5419    014   -1745.0962    005   -2285.8184
 -----------------------------------------------------------------
 -----------------------------------------------------------------
                 RPA Excited-State Multipoles, State   13   
                  LMN = < X^L Y^M Z^N >
 -----------------------------------------------------------------
    Charge (ESU x 10^10)
                 0.0000
    Dipole Moment (Debye)
         X       7.9819      Y       8.6210      Z      -2.8800
       Tot      12.0966
    Quadrupole Moments (Debye-Ang)
        XX    -102.0284     XY      21.1282     YY     -81.0202
        XZ      33.5480     YZ      15.5715     ZZ    -112.3841
    Octopole Moments (Debye-Ang^2)
       XXX     335.8629    XXY    -140.7088    XYY     301.9817
       YYY    -468.3889    XXZ    -149.8521    XYZ       1.1933
       YYZ      -6.0871    XZZ     185.0432    YZZ    -198.8800
       ZZZ    -116.2859
    Hexadecapole Moments (Debye-Ang^3)
      XXXX   -4530.6184   XXXY    -463.4079   XXYY   -1418.2120
      XYYY     -24.4561   YYYY   -4552.7581   XXXZ     759.4213
      XXYZ     342.7992   XYYZ     311.2810   YYYZ     359.3566
      XXZZ   -1416.1359   XYZZ    -341.1240   YYZZ   -1176.7943
      XZZZ     134.0160   YZZZ      16.8669   ZZZZ   -1348.2869
    5th-Order Moments (Debye-Ang^4)
       500   21211.9831    410   -5747.4202    320     696.4085
       230   -3524.0570    140   -4044.2532    050  -35640.6616
       401   -2192.5487    311    -629.1841    221     978.5297
       131    1246.4289    041    2408.4254    302    4527.3989
       212   -1197.6707    122   -1098.5315    032   -5019.3985
       203    -275.1747    113    -462.1901    023    -425.9035
       104    2473.5365    014   -1768.0852    005   -2333.9658
 -----------------------------------------------------------------
 -----------------------------------------------------------------
                 RPA Excited-State Multipoles, State   14   
                  LMN = < X^L Y^M Z^N >
 -----------------------------------------------------------------
    Charge (ESU x 10^10)
                 0.0000
    Dipole Moment (Debye)
         X       6.2444      Y       5.9864      Z      -0.4762
       Tot       8.6635
    Quadrupole Moments (Debye-Ang)
        XX    -122.9411     XY      13.9316     YY    -108.8893
        XZ      29.6549     YZ      15.0741     ZZ    -120.7227
    Octopole Moments (Debye-Ang^2)
       XXX     446.5376    XXY    -186.4985    XYY     283.5231
       YYY    -591.0605    XXZ    -135.5813    XYZ      15.3522
       YYZ     -10.8079    XZZ     209.3380    YZZ    -207.4501
       ZZZ    -133.5934
    Hexadecapole Moments (Debye-Ang^3)
      XXXX   -5501.9361   XXXY    -437.6376   XXYY   -1701.1137
      XYYY    -244.9047   YYYY   -5309.6429   XXXZ     701.1421
      XXYZ     315.2780   XYYZ     364.3807   YYYZ     375.0523
      XXZZ   -1580.1766   XYZZ    -336.9089   YYZZ   -1260.8273
      XZZZ     156.6288   YZZZ       6.2130   ZZZZ   -1567.8950
    5th-Order Moments (Debye-Ang^4)
       500   27210.5238    410   -6678.3484    320     896.9651
       230   -4525.4178    140   -5108.2914    050  -39486.5199
       401   -1855.9081    311    -485.6101    221     922.5922
       131    1414.5933    041    2454.6946    302    5388.1431
       212   -1280.8465    122    -983.1567    032   -5235.5026
       203    -397.2884    113    -453.5502    023    -586.3340
       104    2975.5920    014   -1871.6471    005   -3104.4383
 -----------------------------------------------------------------
 Total job time:  3455.73s(wall), 48007.57s(cpu) 
 Fri Jan 31 00:29:48 2025

        *************************************************************
        *                                                           *
        *  Thank you very much for using Q-Chem.  Have a nice day.  *
        *                                                           *
        *************************************************************


