
Running Job 1 of 1 Peonidin_Q3_tddft_full.in
qchem Peonidin_Q3_tddft_full.in_3266614.0 /data/brussel/103/vsc10365/activedata/TDDFTAnthocyanidines/qchem3266614/ 1
/apps/brussel/RL8/skylake/software/Q-Chem/6.2.0/exe/qcprog.exe_s Peonidin_Q3_tddft_full.in_3266614.0 /data/brussel/103/vsc10365/activedata/TDDFTAnthocyanidines/qchem3266614/
                  Welcome to Q-Chem
     A Quantum Leap Into The Future Of Chemistry


 Q-Chem 6.2, Q-Chem, Inc., Pleasanton, CA (2024)

 License issued to: SRG Prof. Dr. Frank De Proft, Vrije Universiteit Brussel

 E. Epifanovsky,  A. T. B. Gilbert,  Xintian Feng,  Joonho Lee,  Yuezhi Mao,  
 N. Mardirossian,  P. Pokhilko,  A. White,  M. Wormit,  M. P. Coons,  
 A. L. Dempwolff,  Zhengting Gan,  D. Hait,  P. R. Horn,  L. D. Jacobson,  
 I. Kaliman,  J. Kussmann,  A. W. Lange,  Ka Un Lao,  D. S. Levine,  Jie Liu,  
 S. C. McKenzie,  A. F. Morrison,  K. D. Nanda,  F. Plasser,  D. R. Rehn,  
 M. L. Vidal,  Zhi-Qiang You,  Ying Zhu,  Huseyin Aksu,  B. Alam,  
 B. Albrecht,  A. Aldossary,  E. Alguire,  J. H. Andersen,  
 J. E. Arias-Martinez,  V. Athavale,  D. Barton,  K. Begam,  A. Behn,  
 N. Bellonzi,  Y. A. Bernard,  E. J. Berquist,  H. Burton,  A. Carreras,  
 K. Carter-Fenk,  Mathew Chow,  Romit Chakraborty,  Chandrima Chakravarty,  
 Junhan Chen,  A. D. Chien,  K. D. Closser,  V. Cofer-Shabica,  L. Cunha,  
 S. Dasgupta,  Jia Deng,  Joseph Dickinson,  M. de Wergifosse,  
 M. Diedenhofen,  Hainam Do,  Wenjie Dou,  S. Ehlert,  Po-Tung Fang,  
 S. Fatehi,  Qingguo Feng,  Jonathan Fetherolf,  T. Friedhoff,  
 Thomas Froitzheim,  Sarai Folkestad,  B. Ganoe,  J. Gayvert,  Qinghui Ge,  
 G. Gidofalvi,  M. Gimferrer,  M. Goldey,  Montgomery Gray,  J. Gomes,  
 C. Gonzalez-Espinoza,  S. Gulania,  A. Gunina,  J. A. Gyamfi,  
 M. W. D. Hanson-Heine,  P. H. P. Harbach,  A. W. Hauser,  M. F. Herbst,  
 M. Hernandez Vera,  M. Hodecker,  Z. C. Holden,  S. Houck,  Xunkun Huang,  
 Kerwin Hui,  B. C. Huynh,  K. Ikeda,  M. Ivanov,  Nayanthara K. Jayadev,  
 Hyunjun Ji,  Zuxin Jin,  Hanjie Jiang,  Subrata Jana,  B. Kaduk,  
 S. Kaehler,  R. Kang,  K. Khistyaev,  Jaehoon Kim,  Yongbin Kim,  
 P. Klunzinger,  Z. Koczor-Benda,  Joong Hoon Koh,  D. Kosenkov,  
 Saikiran Kotaru,  L. Koulias,  T. Kowalczyk,  C. M. Krauter,  K. Kue,  
 A. Kunitsa,  T. Kus,  A. Landau,  K. V. Lawler,  D. Lefrancois,  S. Lehtola,  
 Rain Li,  Shaozhi Li,  Tao E. Li,  Yi-Pei Li,  Jiashu Liang,  M. Liebenthal,  
 Hung-Hsuan Lin,  You-Sheng Lin,  Fenglai Liu,  Kuan-Yu Liu,  Xiao Liu,  
 M. Loipersberger,  A. Luenser,  C. Malbon,  Aniket Mandal,  Manisha,  
 A. Manjanath,  P. Manohar,  E. Mansoor,  S. F. Manzer,  Shan-Ping Mao,  
 A. V. Marenich,  T. Markovich,  S. Mason,  F. Matz,  S. A. Maurer,  
 Samuel May,  Alexandra McIsaac,  P. F. McLaughlin,  M. F. S. J. Menger,  
 J.-M. Mewes,  S. A. Mewes,  P. Morgante,  Mohammad Mostafanejad,  
 Madhubani Mukherjee,  J. W. Mullinax,  Quyen Nguyen,  Avik Kumar Ojha,  
 K. J. Oosterbaan,  Eno Paenurk,  Xiaoliang Pan,  G. Paran,  V. Parravicini,  
 Alexander C. Paul,  Suranjan K. Paul,  F. Pavosevic,  Zheng Pei,  S. Prager,  
 E. I. Proynov,  E. Ramos,  B. Rana,  A. E. Rask,  A. Rettig,  R. M. Richard,  
 F. Rob,  E. Rossomme,  T. Scheele,  M. Scheurer,  M. Schneider,  
 P. E. Schneider,  Tim K. Schramm,  N. Sergueev,  S. M. Sharada,  
 Hengyuan Shen,  W. Skomorowski,  D. W. Small,  C. J. Stein,  
 Alistair J. Sterling,  Yingli Su,  Yu-Chuan Su,  E. J. Sundstrom,  
 J. Talbot,  Zhen Tao,  J. Thirman,  Hung-Yi Tsai,  T. Tsuchimochi,  
 N. M. Tubman,  C. Utku,  S. P. Veccham,  O. Vydrov,  Rahel Weiss,  
 J. Wenzel,  Jonathan Wong,  J. Witte,  H. Wu,  Yanze Wu,  A. Yamada,  
 Chou-Hsun Yang,  Kun Yao,  S. Yeganeh,  S. R. Yost,  Qi Yu,  A. Zech,  
 F. Zeller,  Chongxiao Zhao,  Igor Ying Zhang,  Xing Zhang,  Yu Zhang,  
 D. Zuev,  A. Aspuru-Guzik,  A. T. Bell,  N. A. Besley,  K. B. Bravaya,  
 B. R. Brooks,  D. Casanova,  Jeng-Da Chai,  Hsing-Ta Chen,  S. Coriani,  
 C. J. Cramer,  A. E. DePrince, III,  R. A. DiStasio Jr.,  A. Dreuw,  
 B. D. Dunietz,  T. R. Furlani,  W. A. Goddard III,  S. Grimme,  
 S. Hammes-Schiffer,  T. Head-Gordon,  W. J. Hehre,  Chao-Ping Hsu,  
 T.-C. Jagau,  Yousung Jung,  A. Klamt,  Jing Kong,  D. S. Lambrecht,  
 Xiangyuan Li,  WanZhen Liang,  N. J. Mayhall,  C. W. McCurdy,  J. B. Neaton,  
 T. Neudecker,  C. Ochsenfeld,  J. A. Parkhill,  R. Peverati,  
 V. A. Rassolov,  Haisheng Ren,  Yihan Shao,  L. V. Slipchenko,  
 R. P. Steele,  J. E. Subotnik,  A. J. W. Thom,  A. Tkatchenko,  
 D. G. Truhlar,  T. Van Voorhis,  Fan Wang,  T. A. Wesolowski,  K. B. Whaley,  
 H. L. Woodcock III,  P. M. Zimmerman,  S. Faraji,  P. M. W. Gill,  
 M. Head-Gordon,  J. M. Herbert,  A. I. Krylov

 Contributors to earlier versions of Q-Chem not listed above: 
 R. D. Adamson,  B. Austin,  R. Baer,  J. Baker,  G. J. O. Beran,  
 K. Brandhorst,  S. T. Brown,  E. F. C. Byrd,  Arup K. Chakraborty,  
 G. K. L. Chan,  Chun-Min Chang,  Yunqing Chen,  C.-L. Cheng,  
 Siu Hung Chien,  D. M. Chipman,  D. L. Crittenden,  H. Dachsel,  
 R. J. Doerksen,  A. D. Dutoi,  R. G. Edgar,  J. Fosso-Tande,  
 L. Fusti-Molnar,  D. Ghosh,  A. Ghysels,  A. Golubeva-Zadorozhnaya,  
 J. Gonthier,  M. S. Gordon,  S. R. Gwaltney,  G. Hawkins,  J. E. Herr,  
 A. Heyden,  S. Hirata,  E. G. Hohenstein,  G. Kedziora,  F. J. Keil,  
 C. Kelley,  Jihan Kim,  R. A. King,  R. Z. Khaliullin,  P. P. Korambath,  
 W. Kurlancheek,  A. Laurent,  A. M. Lee,  M. S. Lee,  S. V. Levchenko,  
 Ching Yeh Lin,  D. Liotard,  E. Livshits,  R. C. Lochan,  I. Lotan,  
 L. A. Martinez-Martinez,  P. E. Maslen,  N. Nair,  D. P. O'Neill,  
 D. Neuhauser,  E. Neuscamman,  C. M. Oana,  R. Olivares-Amaya,  R. Olson,  
 T. M. Perrine,  B. Peters,  P. A. Pieniazek,  A. Prociuk,  Y. M. Rhee,  
 J. Ritchie,  M. A. Rohrdanz,  E. Rosta,  N. J. Russ,  H. F. Schaefer III,  
 M. W. Schmidt,  N. E. Schultz,  S. Sharma,  N. Shenvi,  C. D. Sherrill,  
 A. C. Simmonett,  A. Sodt,  T. Stein,  D. Stuck,  K. S. Thanthiriwatte,  
 V. Vanovschi,  L. Vogt,  Tao Wang,  A. Warshel,  M. A. Watson,  
 C. F. Williams,  Q. Wu,  X. Xu,  Jun Yang,  W. Zhang,  Yan Zhao

   Please cite Q-Chem as follows:
  "Software for the frontiers of quantum chemistry:
   An overview of developments in the Q-Chem 5 package"
   J. Chem. Phys. 155, 084801 (2021)
   https://doi.org/10.1063/5.0055522 (open access)

 Q-Chem 6.2.0 for Intel X86 EM64T Linux

 Parts of Q-Chem use Armadillo 9.900.5 (Nocturnal Misbehaviour).
 http://arma.sourceforge.net/

 Q-Chem begins on Fri Jan 31 00:30:12 2025  

 Host: 
0

     Scratch files written to /data/brussel/103/vsc10365/activedata/TDDFTAnthocyanidines/qchem3266614//
 May224 |scratch|qcdevops|jenkins|workspace|build_RNUM -1
 Processing $rem in /apps/brussel/RL8/skylake/software/Q-Chem/6.2.0/config/preferences:
 Processing $rem in /user/brussel/103/vsc10365/.qchemrc:
 Symmetry turned off for PCM/SM12/SMD calculation

 Checking the input file for inconsistencies... 	...done.

--------------------------------------------------------------
User input:
--------------------------------------------------------------
$comment
TDDFT calculation of peonidin Q3 structure
nprocs=16
mem=64gb
$end

$molecule
0 1
C   -4.9003226    1.1130015   -0.2233717
C   -4.8723499   -0.0902530    0.4678110
C   -3.6877761   -0.5727652    1.0689415
C   -2.5022691    0.2850205    0.9181873
C   -2.6093568    1.5040991    0.1975390
C   -3.7752563    1.9407258   -0.3773530
C   -1.2743437   -0.0353170    1.4528398
C   -0.1609618    0.7957634    1.3012395
C   -0.2890332    1.9816196    0.5901277
O   -1.4997856    2.2785452    0.0656696
C    0.7072197    3.0088695    0.3360300
C    0.2775860    4.2851397   -0.0893958
C    1.1925048    5.2866917   -0.3410388
C    2.5696208    5.0338549   -0.1859859
C    2.9984915    3.7815310    0.2222142
C    2.0818493    2.7761974    0.4884958
O   -6.0472244    1.5668130   -0.8030538
H   -5.7776539   -0.6804974    0.5481412
O   -3.6168408   -1.6704877    1.7050672
H   -3.8315688    2.8712294   -0.9224515
H   -1.1633664   -0.9533047    2.0192421
O    1.0402537    0.4720798    1.8643358
H   -0.7757366    4.4827904   -0.2060842
O    0.8893389    6.5565967   -0.7364994
O    3.4844730    6.0108727   -0.4337274
H    2.4429193    1.8097527    0.7959006
H   -6.7670406    0.9366808   -0.6517117
H    0.9582864   -0.3657209    2.3423514
H    3.0207212    6.8143079   -0.7183815
C   -0.4873762    6.9037633   -0.9206099
H   -0.4908834    7.9466391   -1.2266100
H   -1.0433472    6.7924104    0.0122052
H   -0.9406647    6.2893621   -1.7005688
H    4.0600234    3.6006482    0.3301244
$end

$rem
BASIS  =  def2-ma-TZVP
MEM_STATIC  =  2000
MEM_TOTAL  =  64000
METHOD  =  CAM-B3LYP
SOLVENT_METHOD = pcm
SYMMETRY_IGNORE  =  1
CIS_N_ROOTS = 7
CIS_SINGLETS = true
CIS_TRIPLETS = true
CISTR_PRINT = true
RPA = true
PRINT_ORBITALS = true
SCF_PRINT = 1
SCF_FINAL_PRINT = 2
PRINT_GENERAL_BASIS = true
CISTR_PRINT = true
PRINT_RADII_GYRE = true
MULTIPOLE_ORDER = 5
CIS_AMPL_PRINT = 5
CIS_AMPL_ANAL = true
STATE_ANALYSIS = true
$end

$pcm
Theory   CPCM
Method   SWIG
Solver   Inversion
Radii    Bondi
$end

$solvent
Dielectric         78.39
OpticalDielectric  1.777849
$end


--------------------------------------------------------------
 ----------------------------------------------------------------
             Standard Nuclear Orientation (Angstroms)
    I     Atom           X                Y                Z
 ----------------------------------------------------------------
    1      C      -4.9003226000     1.1130015000    -0.2233717000
    2      C      -4.8723499000    -0.0902530000     0.4678110000
    3      C      -3.6877761000    -0.5727652000     1.0689415000
    4      C      -2.5022691000     0.2850205000     0.9181873000
    5      C      -2.6093568000     1.5040991000     0.1975390000
    6      C      -3.7752563000     1.9407258000    -0.3773530000
    7      C      -1.2743437000    -0.0353170000     1.4528398000
    8      C      -0.1609618000     0.7957634000     1.3012395000
    9      C      -0.2890332000     1.9816196000     0.5901277000
   10      O      -1.4997856000     2.2785452000     0.0656696000
   11      C       0.7072197000     3.0088695000     0.3360300000
   12      C       0.2775860000     4.2851397000    -0.0893958000
   13      C       1.1925048000     5.2866917000    -0.3410388000
   14      C       2.5696208000     5.0338549000    -0.1859859000
   15      C       2.9984915000     3.7815310000     0.2222142000
   16      C       2.0818493000     2.7761974000     0.4884958000
   17      O      -6.0472244000     1.5668130000    -0.8030538000
   18      H      -5.7776539000    -0.6804974000     0.5481412000
   19      O      -3.6168408000    -1.6704877000     1.7050672000
   20      H      -3.8315688000     2.8712294000    -0.9224515000
   21      H      -1.1633664000    -0.9533047000     2.0192421000
   22      O       1.0402537000     0.4720798000     1.8643358000
   23      H      -0.7757366000     4.4827904000    -0.2060842000
   24      O       0.8893389000     6.5565967000    -0.7364994000
   25      O       3.4844730000     6.0108727000    -0.4337274000
   26      H       2.4429193000     1.8097527000     0.7959006000
   27      H      -6.7670406000     0.9366808000    -0.6517117000
   28      H       0.9582864000    -0.3657209000     2.3423514000
   29      H       3.0207212000     6.8143079000    -0.7183815000
   30      C      -0.4873762000     6.9037633000    -0.9206099000
   31      H      -0.4908834000     7.9466391000    -1.2266100000
   32      H      -1.0433472000     6.7924104000     0.0122052000
   33      H      -0.9406647000     6.2893621000    -1.7005688000
   34      H       4.0600234000     3.6006482000     0.3301244000
 ----------------------------------------------------------------
 Nuclear Repulsion Energy =        1700.71189517 hartrees
 There are       78 alpha and       78 beta electrons
 Requested basis set is def2-ma-TZVP
 Basis set in general basis input format:
-----------------------------------------------------------------------
$basis
C    0
S    6    1.000000
   1.35753497E+04    2.22458144E-04 
   2.03523337E+03    1.72327383E-03 
   4.63225624E+02    8.92557153E-03 
   1.31200196E+02    3.57279845E-02 
   4.28530159E+01    1.10762599E-01 
   1.55841858E+01    2.42956276E-01 
S    2    1.000000
   6.20671385E+00    4.14402634E-01 
   2.57648965E+00    2.37449687E-01 
S    1    1.000000
   5.76963394E-01    1.00000000E+00 
S    1    1.000000
   2.29728314E-01    1.00000000E+00 
S    1    1.000000
   9.51644400E-02    1.00000000E+00 
S    1    1.000000
   4.84754014E-02    1.00000000E+00 
P    4    1.000000
   3.46972322E+01    5.33336578E-03 
   7.95826228E+00    3.58641091E-02 
   2.37808269E+00    1.42158733E-01 
   8.14332082E-01    3.42704718E-01 
P    1    1.000000
   2.88875473E-01    4.64458224E-01 
P    1    1.000000
   1.00568237E-01    2.49557899E-01 
D    1    1.000000
   1.09700000E+00    1.00000000E+00 
D    1    1.000000
   3.18000000E-01    1.00000000E+00 
F    1    1.000000
   7.61000000E-01    1.00000000E+00 
****
C    0
S    6    1.000000
   1.35753497E+04    2.22458144E-04 
   2.03523337E+03    1.72327383E-03 
   4.63225624E+02    8.92557153E-03 
   1.31200196E+02    3.57279845E-02 
   4.28530159E+01    1.10762599E-01 
   1.55841858E+01    2.42956276E-01 
S    2    1.000000
   6.20671385E+00    4.14402634E-01 
   2.57648965E+00    2.37449687E-01 
S    1    1.000000
   5.76963394E-01    1.00000000E+00 
S    1    1.000000
   2.29728314E-01    1.00000000E+00 
S    1    1.000000
   9.51644400E-02    1.00000000E+00 
S    1    1.000000
   4.84754014E-02    1.00000000E+00 
P    4    1.000000
   3.46972322E+01    5.33336578E-03 
   7.95826228E+00    3.58641091E-02 
   2.37808269E+00    1.42158733E-01 
   8.14332082E-01    3.42704718E-01 
P    1    1.000000
   2.88875473E-01    4.64458224E-01 
P    1    1.000000
   1.00568237E-01    2.49557899E-01 
D    1    1.000000
   1.09700000E+00    1.00000000E+00 
D    1    1.000000
   3.18000000E-01    1.00000000E+00 
F    1    1.000000
   7.61000000E-01    1.00000000E+00 
****
C    0
S    6    1.000000
   1.35753497E+04    2.22458144E-04 
   2.03523337E+03    1.72327383E-03 
   4.63225624E+02    8.92557153E-03 
   1.31200196E+02    3.57279845E-02 
   4.28530159E+01    1.10762599E-01 
   1.55841858E+01    2.42956276E-01 
S    2    1.000000
   6.20671385E+00    4.14402634E-01 
   2.57648965E+00    2.37449687E-01 
S    1    1.000000
   5.76963394E-01    1.00000000E+00 
S    1    1.000000
   2.29728314E-01    1.00000000E+00 
S    1    1.000000
   9.51644400E-02    1.00000000E+00 
S    1    1.000000
   4.84754014E-02    1.00000000E+00 
P    4    1.000000
   3.46972322E+01    5.33336578E-03 
   7.95826228E+00    3.58641091E-02 
   2.37808269E+00    1.42158733E-01 
   8.14332082E-01    3.42704718E-01 
P    1    1.000000
   2.88875473E-01    4.64458224E-01 
P    1    1.000000
   1.00568237E-01    2.49557899E-01 
D    1    1.000000
   1.09700000E+00    1.00000000E+00 
D    1    1.000000
   3.18000000E-01    1.00000000E+00 
F    1    1.000000
   7.61000000E-01    1.00000000E+00 
****
C    0
S    6    1.000000
   1.35753497E+04    2.22458144E-04 
   2.03523337E+03    1.72327383E-03 
   4.63225624E+02    8.92557153E-03 
   1.31200196E+02    3.57279845E-02 
   4.28530159E+01    1.10762599E-01 
   1.55841858E+01    2.42956276E-01 
S    2    1.000000
   6.20671385E+00    4.14402634E-01 
   2.57648965E+00    2.37449687E-01 
S    1    1.000000
   5.76963394E-01    1.00000000E+00 
S    1    1.000000
   2.29728314E-01    1.00000000E+00 
S    1    1.000000
   9.51644400E-02    1.00000000E+00 
S    1    1.000000
   4.84754014E-02    1.00000000E+00 
P    4    1.000000
   3.46972322E+01    5.33336578E-03 
   7.95826228E+00    3.58641091E-02 
   2.37808269E+00    1.42158733E-01 
   8.14332082E-01    3.42704718E-01 
P    1    1.000000
   2.88875473E-01    4.64458224E-01 
P    1    1.000000
   1.00568237E-01    2.49557899E-01 
D    1    1.000000
   1.09700000E+00    1.00000000E+00 
D    1    1.000000
   3.18000000E-01    1.00000000E+00 
F    1    1.000000
   7.61000000E-01    1.00000000E+00 
****
C    0
S    6    1.000000
   1.35753497E+04    2.22458144E-04 
   2.03523337E+03    1.72327383E-03 
   4.63225624E+02    8.92557153E-03 
   1.31200196E+02    3.57279845E-02 
   4.28530159E+01    1.10762599E-01 
   1.55841858E+01    2.42956276E-01 
S    2    1.000000
   6.20671385E+00    4.14402634E-01 
   2.57648965E+00    2.37449687E-01 
S    1    1.000000
   5.76963394E-01    1.00000000E+00 
S    1    1.000000
   2.29728314E-01    1.00000000E+00 
S    1    1.000000
   9.51644400E-02    1.00000000E+00 
S    1    1.000000
   4.84754014E-02    1.00000000E+00 
P    4    1.000000
   3.46972322E+01    5.33336578E-03 
   7.95826228E+00    3.58641091E-02 
   2.37808269E+00    1.42158733E-01 
   8.14332082E-01    3.42704718E-01 
P    1    1.000000
   2.88875473E-01    4.64458224E-01 
P    1    1.000000
   1.00568237E-01    2.49557899E-01 
D    1    1.000000
   1.09700000E+00    1.00000000E+00 
D    1    1.000000
   3.18000000E-01    1.00000000E+00 
F    1    1.000000
   7.61000000E-01    1.00000000E+00 
****
C    0
S    6    1.000000
   1.35753497E+04    2.22458144E-04 
   2.03523337E+03    1.72327383E-03 
   4.63225624E+02    8.92557153E-03 
   1.31200196E+02    3.57279845E-02 
   4.28530159E+01    1.10762599E-01 
   1.55841858E+01    2.42956276E-01 
S    2    1.000000
   6.20671385E+00    4.14402634E-01 
   2.57648965E+00    2.37449687E-01 
S    1    1.000000
   5.76963394E-01    1.00000000E+00 
S    1    1.000000
   2.29728314E-01    1.00000000E+00 
S    1    1.000000
   9.51644400E-02    1.00000000E+00 
S    1    1.000000
   4.84754014E-02    1.00000000E+00 
P    4    1.000000
   3.46972322E+01    5.33336578E-03 
   7.95826228E+00    3.58641091E-02 
   2.37808269E+00    1.42158733E-01 
   8.14332082E-01    3.42704718E-01 
P    1    1.000000
   2.88875473E-01    4.64458224E-01 
P    1    1.000000
   1.00568237E-01    2.49557899E-01 
D    1    1.000000
   1.09700000E+00    1.00000000E+00 
D    1    1.000000
   3.18000000E-01    1.00000000E+00 
F    1    1.000000
   7.61000000E-01    1.00000000E+00 
****
C    0
S    6    1.000000
   1.35753497E+04    2.22458144E-04 
   2.03523337E+03    1.72327383E-03 
   4.63225624E+02    8.92557153E-03 
   1.31200196E+02    3.57279845E-02 
   4.28530159E+01    1.10762599E-01 
   1.55841858E+01    2.42956276E-01 
S    2    1.000000
   6.20671385E+00    4.14402634E-01 
   2.57648965E+00    2.37449687E-01 
S    1    1.000000
   5.76963394E-01    1.00000000E+00 
S    1    1.000000
   2.29728314E-01    1.00000000E+00 
S    1    1.000000
   9.51644400E-02    1.00000000E+00 
S    1    1.000000
   4.84754014E-02    1.00000000E+00 
P    4    1.000000
   3.46972322E+01    5.33336578E-03 
   7.95826228E+00    3.58641091E-02 
   2.37808269E+00    1.42158733E-01 
   8.14332082E-01    3.42704718E-01 
P    1    1.000000
   2.88875473E-01    4.64458224E-01 
P    1    1.000000
   1.00568237E-01    2.49557899E-01 
D    1    1.000000
   1.09700000E+00    1.00000000E+00 
D    1    1.000000
   3.18000000E-01    1.00000000E+00 
F    1    1.000000
   7.61000000E-01    1.00000000E+00 
****
C    0
S    6    1.000000
   1.35753497E+04    2.22458144E-04 
   2.03523337E+03    1.72327383E-03 
   4.63225624E+02    8.92557153E-03 
   1.31200196E+02    3.57279845E-02 
   4.28530159E+01    1.10762599E-01 
   1.55841858E+01    2.42956276E-01 
S    2    1.000000
   6.20671385E+00    4.14402634E-01 
   2.57648965E+00    2.37449687E-01 
S    1    1.000000
   5.76963394E-01    1.00000000E+00 
S    1    1.000000
   2.29728314E-01    1.00000000E+00 
S    1    1.000000
   9.51644400E-02    1.00000000E+00 
S    1    1.000000
   4.84754014E-02    1.00000000E+00 
P    4    1.000000
   3.46972322E+01    5.33336578E-03 
   7.95826228E+00    3.58641091E-02 
   2.37808269E+00    1.42158733E-01 
   8.14332082E-01    3.42704718E-01 
P    1    1.000000
   2.88875473E-01    4.64458224E-01 
P    1    1.000000
   1.00568237E-01    2.49557899E-01 
D    1    1.000000
   1.09700000E+00    1.00000000E+00 
D    1    1.000000
   3.18000000E-01    1.00000000E+00 
F    1    1.000000
   7.61000000E-01    1.00000000E+00 
****
C    0
S    6    1.000000
   1.35753497E+04    2.22458144E-04 
   2.03523337E+03    1.72327383E-03 
   4.63225624E+02    8.92557153E-03 
   1.31200196E+02    3.57279845E-02 
   4.28530159E+01    1.10762599E-01 
   1.55841858E+01    2.42956276E-01 
S    2    1.000000
   6.20671385E+00    4.14402634E-01 
   2.57648965E+00    2.37449687E-01 
S    1    1.000000
   5.76963394E-01    1.00000000E+00 
S    1    1.000000
   2.29728314E-01    1.00000000E+00 
S    1    1.000000
   9.51644400E-02    1.00000000E+00 
S    1    1.000000
   4.84754014E-02    1.00000000E+00 
P    4    1.000000
   3.46972322E+01    5.33336578E-03 
   7.95826228E+00    3.58641091E-02 
   2.37808269E+00    1.42158733E-01 
   8.14332082E-01    3.42704718E-01 
P    1    1.000000
   2.88875473E-01    4.64458224E-01 
P    1    1.000000
   1.00568237E-01    2.49557899E-01 
D    1    1.000000
   1.09700000E+00    1.00000000E+00 
D    1    1.000000
   3.18000000E-01    1.00000000E+00 
F    1    1.000000
   7.61000000E-01    1.00000000E+00 
****
O    0
S    6    1.000000
   2.70323826E+04    2.17263025E-04 
   4.05238714E+03    1.68386622E-03 
   9.22327227E+02    8.73956163E-03 
   2.61240710E+02    3.52399688E-02 
   8.53546414E+01    1.11535191E-01 
   3.10350352E+01    2.55889540E-01 
S    2    1.000000
   1.22608607E+01    3.97687309E-01 
   4.99870760E+00    2.46278494E-01 
S    1    1.000000
   1.17031082E+00    1.00000000E+00 
S    1    1.000000
   4.64747410E-01    1.00000000E+00 
S    1    1.000000
   1.85045364E-01    1.00000000E+00 
S    1    1.000000
   7.02880263E-02    1.00000000E+00 
P    4    1.000000
   6.32749548E+01    6.06851034E-03 
   1.46270494E+01    4.19125758E-02 
   4.45012235E+00    1.61538411E-01 
   1.52757996E+00    3.57069513E-01 
P    1    1.000000
   5.29351179E-01    4.47942075E-01 
P    1    1.000000
   1.74784213E-01    2.44460697E-01 
P    1    1.000000
   5.11127457E-02    1.00000000E+00 
D    1    1.000000
   2.31400000E+00    1.00000000E+00 
D    1    1.000000
   6.45000000E-01    1.00000000E+00 
F    1    1.000000
   1.42800000E+00    1.00000000E+00 
****
C    0
S    6    1.000000
   1.35753497E+04    2.22458144E-04 
   2.03523337E+03    1.72327383E-03 
   4.63225624E+02    8.92557153E-03 
   1.31200196E+02    3.57279845E-02 
   4.28530159E+01    1.10762599E-01 
   1.55841858E+01    2.42956276E-01 
S    2    1.000000
   6.20671385E+00    4.14402634E-01 
   2.57648965E+00    2.37449687E-01 
S    1    1.000000
   5.76963394E-01    1.00000000E+00 
S    1    1.000000
   2.29728314E-01    1.00000000E+00 
S    1    1.000000
   9.51644400E-02    1.00000000E+00 
S    1    1.000000
   4.84754014E-02    1.00000000E+00 
P    4    1.000000
   3.46972322E+01    5.33336578E-03 
   7.95826228E+00    3.58641091E-02 
   2.37808269E+00    1.42158733E-01 
   8.14332082E-01    3.42704718E-01 
P    1    1.000000
   2.88875473E-01    4.64458224E-01 
P    1    1.000000
   1.00568237E-01    2.49557899E-01 
D    1    1.000000
   1.09700000E+00    1.00000000E+00 
D    1    1.000000
   3.18000000E-01    1.00000000E+00 
F    1    1.000000
   7.61000000E-01    1.00000000E+00 
****
C    0
S    6    1.000000
   1.35753497E+04    2.22458144E-04 
   2.03523337E+03    1.72327383E-03 
   4.63225624E+02    8.92557153E-03 
   1.31200196E+02    3.57279845E-02 
   4.28530159E+01    1.10762599E-01 
   1.55841858E+01    2.42956276E-01 
S    2    1.000000
   6.20671385E+00    4.14402634E-01 
   2.57648965E+00    2.37449687E-01 
S    1    1.000000
   5.76963394E-01    1.00000000E+00 
S    1    1.000000
   2.29728314E-01    1.00000000E+00 
S    1    1.000000
   9.51644400E-02    1.00000000E+00 
S    1    1.000000
   4.84754014E-02    1.00000000E+00 
P    4    1.000000
   3.46972322E+01    5.33336578E-03 
   7.95826228E+00    3.58641091E-02 
   2.37808269E+00    1.42158733E-01 
   8.14332082E-01    3.42704718E-01 
P    1    1.000000
   2.88875473E-01    4.64458224E-01 
P    1    1.000000
   1.00568237E-01    2.49557899E-01 
D    1    1.000000
   1.09700000E+00    1.00000000E+00 
D    1    1.000000
   3.18000000E-01    1.00000000E+00 
F    1    1.000000
   7.61000000E-01    1.00000000E+00 
****
C    0
S    6    1.000000
   1.35753497E+04    2.22458144E-04 
   2.03523337E+03    1.72327383E-03 
   4.63225624E+02    8.92557153E-03 
   1.31200196E+02    3.57279845E-02 
   4.28530159E+01    1.10762599E-01 
   1.55841858E+01    2.42956276E-01 
S    2    1.000000
   6.20671385E+00    4.14402634E-01 
   2.57648965E+00    2.37449687E-01 
S    1    1.000000
   5.76963394E-01    1.00000000E+00 
S    1    1.000000
   2.29728314E-01    1.00000000E+00 
S    1    1.000000
   9.51644400E-02    1.00000000E+00 
S    1    1.000000
   4.84754014E-02    1.00000000E+00 
P    4    1.000000
   3.46972322E+01    5.33336578E-03 
   7.95826228E+00    3.58641091E-02 
   2.37808269E+00    1.42158733E-01 
   8.14332082E-01    3.42704718E-01 
P    1    1.000000
   2.88875473E-01    4.64458224E-01 
P    1    1.000000
   1.00568237E-01    2.49557899E-01 
D    1    1.000000
   1.09700000E+00    1.00000000E+00 
D    1    1.000000
   3.18000000E-01    1.00000000E+00 
F    1    1.000000
   7.61000000E-01    1.00000000E+00 
****
C    0
S    6    1.000000
   1.35753497E+04    2.22458144E-04 
   2.03523337E+03    1.72327383E-03 
   4.63225624E+02    8.92557153E-03 
   1.31200196E+02    3.57279845E-02 
   4.28530159E+01    1.10762599E-01 
   1.55841858E+01    2.42956276E-01 
S    2    1.000000
   6.20671385E+00    4.14402634E-01 
   2.57648965E+00    2.37449687E-01 
S    1    1.000000
   5.76963394E-01    1.00000000E+00 
S    1    1.000000
   2.29728314E-01    1.00000000E+00 
S    1    1.000000
   9.51644400E-02    1.00000000E+00 
S    1    1.000000
   4.84754014E-02    1.00000000E+00 
P    4    1.000000
   3.46972322E+01    5.33336578E-03 
   7.95826228E+00    3.58641091E-02 
   2.37808269E+00    1.42158733E-01 
   8.14332082E-01    3.42704718E-01 
P    1    1.000000
   2.88875473E-01    4.64458224E-01 
P    1    1.000000
   1.00568237E-01    2.49557899E-01 
D    1    1.000000
   1.09700000E+00    1.00000000E+00 
D    1    1.000000
   3.18000000E-01    1.00000000E+00 
F    1    1.000000
   7.61000000E-01    1.00000000E+00 
****
C    0
S    6    1.000000
   1.35753497E+04    2.22458144E-04 
   2.03523337E+03    1.72327383E-03 
   4.63225624E+02    8.92557153E-03 
   1.31200196E+02    3.57279845E-02 
   4.28530159E+01    1.10762599E-01 
   1.55841858E+01    2.42956276E-01 
S    2    1.000000
   6.20671385E+00    4.14402634E-01 
   2.57648965E+00    2.37449687E-01 
S    1    1.000000
   5.76963394E-01    1.00000000E+00 
S    1    1.000000
   2.29728314E-01    1.00000000E+00 
S    1    1.000000
   9.51644400E-02    1.00000000E+00 
S    1    1.000000
   4.84754014E-02    1.00000000E+00 
P    4    1.000000
   3.46972322E+01    5.33336578E-03 
   7.95826228E+00    3.58641091E-02 
   2.37808269E+00    1.42158733E-01 
   8.14332082E-01    3.42704718E-01 
P    1    1.000000
   2.88875473E-01    4.64458224E-01 
P    1    1.000000
   1.00568237E-01    2.49557899E-01 
D    1    1.000000
   1.09700000E+00    1.00000000E+00 
D    1    1.000000
   3.18000000E-01    1.00000000E+00 
F    1    1.000000
   7.61000000E-01    1.00000000E+00 
****
C    0
S    6    1.000000
   1.35753497E+04    2.22458144E-04 
   2.03523337E+03    1.72327383E-03 
   4.63225624E+02    8.92557153E-03 
   1.31200196E+02    3.57279845E-02 
   4.28530159E+01    1.10762599E-01 
   1.55841858E+01    2.42956276E-01 
S    2    1.000000
   6.20671385E+00    4.14402634E-01 
   2.57648965E+00    2.37449687E-01 
S    1    1.000000
   5.76963394E-01    1.00000000E+00 
S    1    1.000000
   2.29728314E-01    1.00000000E+00 
S    1    1.000000
   9.51644400E-02    1.00000000E+00 
S    1    1.000000
   4.84754014E-02    1.00000000E+00 
P    4    1.000000
   3.46972322E+01    5.33336578E-03 
   7.95826228E+00    3.58641091E-02 
   2.37808269E+00    1.42158733E-01 
   8.14332082E-01    3.42704718E-01 
P    1    1.000000
   2.88875473E-01    4.64458224E-01 
P    1    1.000000
   1.00568237E-01    2.49557899E-01 
D    1    1.000000
   1.09700000E+00    1.00000000E+00 
D    1    1.000000
   3.18000000E-01    1.00000000E+00 
F    1    1.000000
   7.61000000E-01    1.00000000E+00 
****
O    0
S    6    1.000000
   2.70323826E+04    2.17263025E-04 
   4.05238714E+03    1.68386622E-03 
   9.22327227E+02    8.73956163E-03 
   2.61240710E+02    3.52399688E-02 
   8.53546414E+01    1.11535191E-01 
   3.10350352E+01    2.55889540E-01 
S    2    1.000000
   1.22608607E+01    3.97687309E-01 
   4.99870760E+00    2.46278494E-01 
S    1    1.000000
   1.17031082E+00    1.00000000E+00 
S    1    1.000000
   4.64747410E-01    1.00000000E+00 
S    1    1.000000
   1.85045364E-01    1.00000000E+00 
S    1    1.000000
   7.02880263E-02    1.00000000E+00 
P    4    1.000000
   6.32749548E+01    6.06851034E-03 
   1.46270494E+01    4.19125758E-02 
   4.45012235E+00    1.61538411E-01 
   1.52757996E+00    3.57069513E-01 
P    1    1.000000
   5.29351179E-01    4.47942075E-01 
P    1    1.000000
   1.74784213E-01    2.44460697E-01 
P    1    1.000000
   5.11127457E-02    1.00000000E+00 
D    1    1.000000
   2.31400000E+00    1.00000000E+00 
D    1    1.000000
   6.45000000E-01    1.00000000E+00 
F    1    1.000000
   1.42800000E+00    1.00000000E+00 
****
H    0
S    3    1.000000
   3.40613410E+01    6.02519780E-03 
   5.12357460E+00    4.50210940E-02 
   1.16466260E+00    2.01897260E-01 
S    1    1.000000
   3.27230410E-01    1.00000000E+00 
S    1    1.000000
   1.03072410E-01    1.00000000E+00 
P    1    1.000000
   8.00000000E-01    1.00000000E+00 
****
O    0
S    6    1.000000
   2.70323826E+04    2.17263025E-04 
   4.05238714E+03    1.68386622E-03 
   9.22327227E+02    8.73956163E-03 
   2.61240710E+02    3.52399688E-02 
   8.53546414E+01    1.11535191E-01 
   3.10350352E+01    2.55889540E-01 
S    2    1.000000
   1.22608607E+01    3.97687309E-01 
   4.99870760E+00    2.46278494E-01 
S    1    1.000000
   1.17031082E+00    1.00000000E+00 
S    1    1.000000
   4.64747410E-01    1.00000000E+00 
S    1    1.000000
   1.85045364E-01    1.00000000E+00 
S    1    1.000000
   7.02880263E-02    1.00000000E+00 
P    4    1.000000
   6.32749548E+01    6.06851034E-03 
   1.46270494E+01    4.19125758E-02 
   4.45012235E+00    1.61538411E-01 
   1.52757996E+00    3.57069513E-01 
P    1    1.000000
   5.29351179E-01    4.47942075E-01 
P    1    1.000000
   1.74784213E-01    2.44460697E-01 
P    1    1.000000
   5.11127457E-02    1.00000000E+00 
D    1    1.000000
   2.31400000E+00    1.00000000E+00 
D    1    1.000000
   6.45000000E-01    1.00000000E+00 
F    1    1.000000
   1.42800000E+00    1.00000000E+00 
****
H    0
S    3    1.000000
   3.40613410E+01    6.02519780E-03 
   5.12357460E+00    4.50210940E-02 
   1.16466260E+00    2.01897260E-01 
S    1    1.000000
   3.27230410E-01    1.00000000E+00 
S    1    1.000000
   1.03072410E-01    1.00000000E+00 
P    1    1.000000
   8.00000000E-01    1.00000000E+00 
****
H    0
S    3    1.000000
   3.40613410E+01    6.02519780E-03 
   5.12357460E+00    4.50210940E-02 
   1.16466260E+00    2.01897260E-01 
S    1    1.000000
   3.27230410E-01    1.00000000E+00 
S    1    1.000000
   1.03072410E-01    1.00000000E+00 
P    1    1.000000
   8.00000000E-01    1.00000000E+00 
****
O    0
S    6    1.000000
   2.70323826E+04    2.17263025E-04 
   4.05238714E+03    1.68386622E-03 
   9.22327227E+02    8.73956163E-03 
   2.61240710E+02    3.52399688E-02 
   8.53546414E+01    1.11535191E-01 
   3.10350352E+01    2.55889540E-01 
S    2    1.000000
   1.22608607E+01    3.97687309E-01 
   4.99870760E+00    2.46278494E-01 
S    1    1.000000
   1.17031082E+00    1.00000000E+00 
S    1    1.000000
   4.64747410E-01    1.00000000E+00 
S    1    1.000000
   1.85045364E-01    1.00000000E+00 
S    1    1.000000
   7.02880263E-02    1.00000000E+00 
P    4    1.000000
   6.32749548E+01    6.06851034E-03 
   1.46270494E+01    4.19125758E-02 
   4.45012235E+00    1.61538411E-01 
   1.52757996E+00    3.57069513E-01 
P    1    1.000000
   5.29351179E-01    4.47942075E-01 
P    1    1.000000
   1.74784213E-01    2.44460697E-01 
P    1    1.000000
   5.11127457E-02    1.00000000E+00 
D    1    1.000000
   2.31400000E+00    1.00000000E+00 
D    1    1.000000
   6.45000000E-01    1.00000000E+00 
F    1    1.000000
   1.42800000E+00    1.00000000E+00 
****
H    0
S    3    1.000000
   3.40613410E+01    6.02519780E-03 
   5.12357460E+00    4.50210940E-02 
   1.16466260E+00    2.01897260E-01 
S    1    1.000000
   3.27230410E-01    1.00000000E+00 
S    1    1.000000
   1.03072410E-01    1.00000000E+00 
P    1    1.000000
   8.00000000E-01    1.00000000E+00 
****
O    0
S    6    1.000000
   2.70323826E+04    2.17263025E-04 
   4.05238714E+03    1.68386622E-03 
   9.22327227E+02    8.73956163E-03 
   2.61240710E+02    3.52399688E-02 
   8.53546414E+01    1.11535191E-01 
   3.10350352E+01    2.55889540E-01 
S    2    1.000000
   1.22608607E+01    3.97687309E-01 
   4.99870760E+00    2.46278494E-01 
S    1    1.000000
   1.17031082E+00    1.00000000E+00 
S    1    1.000000
   4.64747410E-01    1.00000000E+00 
S    1    1.000000
   1.85045364E-01    1.00000000E+00 
S    1    1.000000
   7.02880263E-02    1.00000000E+00 
P    4    1.000000
   6.32749548E+01    6.06851034E-03 
   1.46270494E+01    4.19125758E-02 
   4.45012235E+00    1.61538411E-01 
   1.52757996E+00    3.57069513E-01 
P    1    1.000000
   5.29351179E-01    4.47942075E-01 
P    1    1.000000
   1.74784213E-01    2.44460697E-01 
P    1    1.000000
   5.11127457E-02    1.00000000E+00 
D    1    1.000000
   2.31400000E+00    1.00000000E+00 
D    1    1.000000
   6.45000000E-01    1.00000000E+00 
F    1    1.000000
   1.42800000E+00    1.00000000E+00 
****
O    0
S    6    1.000000
   2.70323826E+04    2.17263025E-04 
   4.05238714E+03    1.68386622E-03 
   9.22327227E+02    8.73956163E-03 
   2.61240710E+02    3.52399688E-02 
   8.53546414E+01    1.11535191E-01 
   3.10350352E+01    2.55889540E-01 
S    2    1.000000
   1.22608607E+01    3.97687309E-01 
   4.99870760E+00    2.46278494E-01 
S    1    1.000000
   1.17031082E+00    1.00000000E+00 
S    1    1.000000
   4.64747410E-01    1.00000000E+00 
S    1    1.000000
   1.85045364E-01    1.00000000E+00 
S    1    1.000000
   7.02880263E-02    1.00000000E+00 
P    4    1.000000
   6.32749548E+01    6.06851034E-03 
   1.46270494E+01    4.19125758E-02 
   4.45012235E+00    1.61538411E-01 
   1.52757996E+00    3.57069513E-01 
P    1    1.000000
   5.29351179E-01    4.47942075E-01 
P    1    1.000000
   1.74784213E-01    2.44460697E-01 
P    1    1.000000
   5.11127457E-02    1.00000000E+00 
D    1    1.000000
   2.31400000E+00    1.00000000E+00 
D    1    1.000000
   6.45000000E-01    1.00000000E+00 
F    1    1.000000
   1.42800000E+00    1.00000000E+00 
****
H    0
S    3    1.000000
   3.40613410E+01    6.02519780E-03 
   5.12357460E+00    4.50210940E-02 
   1.16466260E+00    2.01897260E-01 
S    1    1.000000
   3.27230410E-01    1.00000000E+00 
S    1    1.000000
   1.03072410E-01    1.00000000E+00 
P    1    1.000000
   8.00000000E-01    1.00000000E+00 
****
H    0
S    3    1.000000
   3.40613410E+01    6.02519780E-03 
   5.12357460E+00    4.50210940E-02 
   1.16466260E+00    2.01897260E-01 
S    1    1.000000
   3.27230410E-01    1.00000000E+00 
S    1    1.000000
   1.03072410E-01    1.00000000E+00 
P    1    1.000000
   8.00000000E-01    1.00000000E+00 
****
H    0
S    3    1.000000
   3.40613410E+01    6.02519780E-03 
   5.12357460E+00    4.50210940E-02 
   1.16466260E+00    2.01897260E-01 
S    1    1.000000
   3.27230410E-01    1.00000000E+00 
S    1    1.000000
   1.03072410E-01    1.00000000E+00 
P    1    1.000000
   8.00000000E-01    1.00000000E+00 
****
H    0
S    3    1.000000
   3.40613410E+01    6.02519780E-03 
   5.12357460E+00    4.50210940E-02 
   1.16466260E+00    2.01897260E-01 
S    1    1.000000
   3.27230410E-01    1.00000000E+00 
S    1    1.000000
   1.03072410E-01    1.00000000E+00 
P    1    1.000000
   8.00000000E-01    1.00000000E+00 
****
C    0
S    6    1.000000
   1.35753497E+04    2.22458144E-04 
   2.03523337E+03    1.72327383E-03 
   4.63225624E+02    8.92557153E-03 
   1.31200196E+02    3.57279845E-02 
   4.28530159E+01    1.10762599E-01 
   1.55841858E+01    2.42956276E-01 
S    2    1.000000
   6.20671385E+00    4.14402634E-01 
   2.57648965E+00    2.37449687E-01 
S    1    1.000000
   5.76963394E-01    1.00000000E+00 
S    1    1.000000
   2.29728314E-01    1.00000000E+00 
S    1    1.000000
   9.51644400E-02    1.00000000E+00 
S    1    1.000000
   4.84754014E-02    1.00000000E+00 
P    4    1.000000
   3.46972322E+01    5.33336578E-03 
   7.95826228E+00    3.58641091E-02 
   2.37808269E+00    1.42158733E-01 
   8.14332082E-01    3.42704718E-01 
P    1    1.000000
   2.88875473E-01    4.64458224E-01 
P    1    1.000000
   1.00568237E-01    2.49557899E-01 
D    1    1.000000
   1.09700000E+00    1.00000000E+00 
D    1    1.000000
   3.18000000E-01    1.00000000E+00 
F    1    1.000000
   7.61000000E-01    1.00000000E+00 
****
H    0
S    3    1.000000
   3.40613410E+01    6.02519780E-03 
   5.12357460E+00    4.50210940E-02 
   1.16466260E+00    2.01897260E-01 
S    1    1.000000
   3.27230410E-01    1.00000000E+00 
S    1    1.000000
   1.03072410E-01    1.00000000E+00 
P    1    1.000000
   8.00000000E-01    1.00000000E+00 
****
H    0
S    3    1.000000
   3.40613410E+01    6.02519780E-03 
   5.12357460E+00    4.50210940E-02 
   1.16466260E+00    2.01897260E-01 
S    1    1.000000
   3.27230410E-01    1.00000000E+00 
S    1    1.000000
   1.03072410E-01    1.00000000E+00 
P    1    1.000000
   8.00000000E-01    1.00000000E+00 
****
H    0
S    3    1.000000
   3.40613410E+01    6.02519780E-03 
   5.12357460E+00    4.50210940E-02 
   1.16466260E+00    2.01897260E-01 
S    1    1.000000
   3.27230410E-01    1.00000000E+00 
S    1    1.000000
   1.03072410E-01    1.00000000E+00 
P    1    1.000000
   8.00000000E-01    1.00000000E+00 
****
H    0
S    3    1.000000
   3.40613410E+01    6.02519780E-03 
   5.12357460E+00    4.50210940E-02 
   1.16466260E+00    2.01897260E-01 
S    1    1.000000
   3.27230410E-01    1.00000000E+00 
S    1    1.000000
   1.03072410E-01    1.00000000E+00 
P    1    1.000000
   8.00000000E-01    1.00000000E+00 
****
$end
-----------------------------------------------------------------------
 There are 318 shells and 794 basis functions

 Total QAlloc Memory Limit  64000 MB
 Mega-Array Size      1956 MB
 MEM_STATIC part      2000 MB

 User-specified dielectric constants (eps_0 = 78.39, eps_inf = 1.78)
 Using C-PCM dielectric factor f(eps) = (eps-1)/eps = 0.987243
 Static dielectric constant eps = 78.39
 Discretize the solute cavity surface with Lebedev spheres
	Using 110 Lebedev grid points for each H atom
	Using 194 Lebedev grid points for other atoms
	Atomic van der Waals radii (Bondi set) will be scaled by 1.20
 Using smooth SwiG surface discretization
 Remove points where switching function is < 1.0e-08
 Keep 2268 surface tesserae and discard 3320 interior tesserae
 Molecular Surface Area = 317.204 Angst**2

 A cutoff of  1.0D-12 yielded  35982 shell pairs
 There are    210510 function pairs (    266724 Cartesian)
 Smallest overlap matrix eigenvalue = 4.60E-06

 Scale SEOQF with 1.000000e-02/1.000000e-02/1.000000e-01

 Standard Electronic Orientation quadrupole field applied
 Nucleus-field energy     =     0.0000000050 hartrees
 Guess from superposition of atomic densities
 Warning:  Energy on first SCF cycle will be non-variational
 SAD guess density has 156.000000 electrons

 -----------------------------------------------------------------------
  General SCF calculation program by
  Eric Jon Sundstrom, Paul Horn, Yuezhi Mao, Dmitri Zuev, Alec White,
  David Stuck, Shaama M.S., Shane Yost, Joonho Lee, David Small,
  Daniel Levine, Susi Lehtola, Hugh Burton, Evgeny Epifanovsky,
  Bang C. Huynh
 -----------------------------------------------------------------------
 Exchange:     0.1900 Hartree-Fock + 0.3500 B88 + 0.4600 muB88 + LR-HF
 Correlation:  0.1900 VWN5 + 0.8100 LYP
 Using SG-1 standard quadrature grid
 using 16 threads for integral computing
 -------------------------------------------------------
 OpenMP Integral computing Module                
 Release: version 1.0, May 2013, Q-Chem Inc. Pittsburgh 
 -------------------------------------------------------
 C-PCM solvent model [f = (eps-1)/eps], solve by matrix inversion
 DFT Correlation          Energy =  -6.33925678200818
 DFT Exchange             Energy = -96.74889014480270
 HF Exchange              Energy = -39.83282313455155
 One-Electron             Energy = -4821.61516761418625
 SCRF wf-dependent energy Energy =   0.00000000000000
 Total Coulomb            Energy = 2189.10914604742948
 Nuclear repulsion Energy = 1700.71189517393486
 A restricted SCF calculation will be
 performed using DIIS
 SCF converges when DIIS error is below 1.0e-08
 DFT Correlation          Energy =  -6.33925678200818
 DFT Exchange             Energy = -96.74889014480270
 HF Exchange              Energy = -39.83282313455155
 One-Electron             Energy = -4821.61516761418625
 SCRF wf-dependent energy Energy =   0.00000000000000
 Total Coulomb            Energy = 2189.10914604742948
 ---------------------------------------
  Cycle       Energy         DIIS error
 ---------------------------------------
 DFT Correlation          Energy =  -6.42489026724794
 DFT Exchange             Energy = -98.83543111942203
 HF Exchange              Energy = -38.45058097695269
 One-Electron             Energy = -4841.71541858618639
 SCRF wf-dependent energy Energy =  -1.14107902847513
 Total Coulomb            Energy = 2217.96847459054061
 Nuclear repulsion Energy = 1700.71189517393486
    1   -1074.7150964542      2.05e-02  
 DFT Correlation          Energy =  -6.36617218825509
 DFT Exchange             Energy = -97.14725989215992
 HF Exchange              Energy = -37.97945173644444
 One-Electron             Energy = -4828.95702404226176
 SCRF wf-dependent energy Energy =   0.39931798714588
 Total Coulomb            Energy = 2201.57434137954715
 Nuclear repulsion Energy = 1700.71189517393486
    2   -1067.8870302138      2.18e-03  
 DFT Correlation          Energy =  -6.39195422410247
 DFT Exchange             Energy = -97.95235854056671
 HF Exchange              Energy = -38.22350806026347
 One-Electron             Energy = -4832.42891164172306
 SCRF wf-dependent energy Energy =  -1.03323124178269
 Total Coulomb            Energy = 2207.13411448111447
 Nuclear repulsion Energy = 1700.71189517393486
    3   -1067.7643533185      2.74e-03  
 DFT Correlation          Energy =  -6.39431024024123
 DFT Exchange             Energy = -97.98814472499306
 HF Exchange              Energy = -38.23247605837390
 One-Electron             Energy = -4834.26001953091873
 SCRF wf-dependent energy Energy =  -0.67259125146893
 Total Coulomb            Energy = 2208.63819478109372
 Nuclear repulsion Energy = 1700.71189517393486
    4   -1068.1839540534      4.99e-04  
 DFT Correlation          Energy =  -6.39395723020105
 DFT Exchange             Energy = -97.98028542475848
 HF Exchange              Energy = -38.23119726689634
 One-Electron             Energy = -4834.26077963438729
 SCRF wf-dependent energy Energy =  -0.64047601372522
 Total Coulomb            Energy = 2208.59554519439871
 Nuclear repulsion Energy = 1700.71189517393486
    5   -1068.1974518510      1.77e-04  
 DFT Correlation          Energy =  -6.39369046326375
 DFT Exchange             Energy = -97.97656720058916
 HF Exchange              Energy = -38.23090906460205
 One-Electron             Energy = -4834.04841030889656
 SCRF wf-dependent energy Energy =  -0.68065051406279
 Total Coulomb            Energy = 2208.41885796024599
 Nuclear repulsion Energy = 1700.71189517393486
    6   -1068.1992552016      5.52e-05  
 DFT Correlation          Energy =  -6.39368186976825
 DFT Exchange             Energy = -97.97601541135980
 HF Exchange              Energy = -38.23099288568973
 One-Electron             Energy = -4834.06914476861311
 SCRF wf-dependent energy Energy =  -0.67032109754768
 Total Coulomb            Energy = 2208.42875875296750
 Nuclear repulsion Energy = 1700.71189517393486
    7   -1068.1994744172      1.52e-05  
 DFT Correlation          Energy =  -6.39372963947226
 DFT Exchange             Energy = -97.97708478499855
 HF Exchange              Energy = -38.23137617735986
 One-Electron             Energy = -4834.09663034431378
 SCRF wf-dependent energy Energy =  -0.66649071687721
 Total Coulomb            Energy = 2208.45390492418574
 Nuclear repulsion Energy = 1700.71189517393486
    8   -1068.1995021061      6.88e-06  
 DFT Correlation          Energy =  -6.39372833790017
 DFT Exchange             Energy = -97.97725298337232
 HF Exchange              Energy = -38.23150053999464
 One-Electron             Energy = -4834.10162151714212
 SCRF wf-dependent energy Energy =  -0.66355621501680
 Total Coulomb            Energy = 2208.45624888652173
 Nuclear repulsion Energy = 1700.71189517393486
    9   -1068.1995115649      3.14e-06  
 DFT Correlation          Energy =  -6.39372174303177
 DFT Exchange             Energy = -97.97701953847113
 HF Exchange              Energy = -38.23145847073437
 One-Electron             Energy = -4834.09868063745580
 SCRF wf-dependent energy Energy =  -0.66352953825708
 Total Coulomb            Energy = 2208.45299847788647
 Nuclear repulsion Energy = 1700.71189517393486
   10   -1068.1995155330      1.75e-06  
 DFT Correlation          Energy =  -6.39372616070033
 DFT Exchange             Energy = -97.97716770290992
 HF Exchange              Energy = -38.23150052263494
 One-Electron             Energy = -4834.10252236753149
 SCRF wf-dependent energy Energy =  -0.66257102343889
 Total Coulomb            Energy = 2208.45607614488335
 Nuclear repulsion Energy = 1700.71189517393486
   11   -1068.1995162761      6.17e-07  
 DFT Correlation          Energy =  -6.39372675696601
 DFT Exchange             Energy = -97.97716169380607
 HF Exchange              Energy = -38.23149871304246
 One-Electron             Energy = -4834.10313272090661
 SCRF wf-dependent energy Energy =  -0.66233490550530
 Total Coulomb            Energy = 2208.45644312538298
 Nuclear repulsion Energy = 1700.71189517393486
   12   -1068.1995164584      3.60e-07  
 DFT Correlation          Energy =  -6.39372665104256
 DFT Exchange             Energy = -97.97716679874745
 HF Exchange              Energy = -38.23149927311655
 One-Electron             Energy = -4834.10315819245716
 SCRF wf-dependent energy Energy =  -0.66229033075047
 Total Coulomb            Energy = 2208.45642957699556
 Nuclear repulsion Energy = 1700.71189517393486
   13   -1068.1995164909      1.36e-07  
 DFT Correlation          Energy =  -6.39372662756984
 DFT Exchange             Energy = -97.97716407809955
 HF Exchange              Energy = -38.23149822533372
 One-Electron             Energy = -4834.10322611695665
 SCRF wf-dependent energy Energy =  -0.66225329291478
 Total Coulomb            Energy = 2208.45645667167082
 Nuclear repulsion Energy = 1700.71189517393486
   14   -1068.1995164952      3.85e-08  
 DFT Correlation          Energy =  -6.39372668514887
 DFT Exchange             Energy = -97.97716564751408
 HF Exchange              Energy = -38.23149859579532
 One-Electron             Energy = -4834.10325156585623
 SCRF wf-dependent energy Energy =  -0.66225123522395
 Total Coulomb            Energy = 2208.45648206043370
 Nuclear repulsion Energy = 1700.71189517393486
   15   -1068.1995164953      1.77e-08  
   16   -1068.1995164952      5.35e-09  Convergence criterion met
 ---------------------------------------
 DFT Correlation          Energy =  -6.39372668514887
 DFT Exchange             Energy = -97.97716564751408
 HF Exchange              Energy = -38.23149859579532
 One-Electron             Energy = -4834.10325156585623
 SCRF wf-dependent energy Energy =  -0.66225123522395
 Total Coulomb            Energy = 2208.45648206043370
 Final Alpha MO Eigenvalues
            1           2           3           4           5           6
    1 -19.2990427 -19.2461387 -19.2448536 -19.2435909 -19.2425354 -19.1510287
            7           8           9          10          11          12
    1 -10.3616143 -10.3458787 -10.3375740 -10.3351227 -10.3267460 -10.3221915
           13          14          15          16          17          18
    1 -10.3205096 -10.2977132 -10.2958121 -10.2791781 -10.2747439 -10.2642861
           19          20          21          22          23          24
    1 -10.2618468 -10.2560826 -10.2430126 -10.2324022  -1.2250754  -1.1722322
           25          26          27          28          29          30
    1  -1.1615292  -1.1564057  -1.1437060  -1.0765112  -0.9663245  -0.9478435
           31          32          33          34          35          36
    1  -0.9228729  -0.8826680  -0.8503912  -0.8353523  -0.8196096  -0.7909828
           37          38          39          40          41          42
    1  -0.7627966  -0.7601081  -0.7056798  -0.6982588  -0.6838576  -0.6705517
           43          44          45          46          47          48
    1  -0.6420633  -0.6332584  -0.6192712  -0.6089197  -0.5868884  -0.5774768
           49          50          51          52          53          54
    1  -0.5695449  -0.5635921  -0.5521637  -0.5485091  -0.5310356  -0.5210976
           55          56          57          58          59          60
    1  -0.5104504  -0.5039715  -0.5013816  -0.4973985  -0.4956529  -0.4891927
           61          62          63          64          65          66
    1  -0.4867933  -0.4796528  -0.4678297  -0.4577305  -0.4525659  -0.4463444
           67          68          69          70          71          72
    1  -0.4347810  -0.4297512  -0.4190291  -0.4161351  -0.4101012  -0.3817437
           73          74          75          76          77          78
    1  -0.3642337  -0.3237730  -0.3147712  -0.3050733  -0.2778758  -0.2482038
           79          80          81          82          83          84
    1  -0.0678300   0.0064622   0.0277931   0.0298451   0.0345393   0.0389450
           85          86          87          88          89          90
    1   0.0483589   0.0507550   0.0527131   0.0604878   0.0645132   0.0698108
           91          92          93          94          95          96
    1   0.0756341   0.0765480   0.0850886   0.0916283   0.0928205   0.0941411
           97          98          99         100         101         102
    1   0.1009715   0.1078571   0.1103363   0.1130348   0.1206664   0.1234534
          103         104         105         106         107         108
    1   0.1292953   0.1319919   0.1415579   0.1430796   0.1456935   0.1498531
          109         110         111         112         113         114
    1   0.1552290   0.1587002   0.1710503   0.1730945   0.1781279   0.1832764
          115         116         117         118         119         120
    1   0.1867088   0.1915613   0.1955710   0.1988662   0.2061138   0.2118359
          121         122         123         124         125         126
    1   0.2168663   0.2223826   0.2283281   0.2311300   0.2329604   0.2370301
          127         128         129         130         131         132
    1   0.2374300   0.2436965   0.2454494   0.2509827   0.2524940   0.2621208
          133         134         135         136         137         138
    1   0.2678061   0.2741915   0.2782508   0.2856436   0.2876464   0.2905261
          139         140         141         142         143         144
    1   0.2956935   0.3010476   0.3050386   0.3088130   0.3129896   0.3192353
          145         146         147         148         149         150
    1   0.3213437   0.3230206   0.3280650   0.3306812   0.3386139   0.3401568
          151         152         153         154         155         156
    1   0.3455700   0.3465314   0.3540803   0.3552071   0.3566392   0.3629852
          157         158         159         160         161         162
    1   0.3696497   0.3721844   0.3769838   0.3819217   0.3856404   0.3945847
          163         164         165         166         167         168
    1   0.4004478   0.4043960   0.4055774   0.4088699   0.4124319   0.4161032
          169         170         171         172         173         174
    1   0.4267901   0.4274912   0.4331107   0.4391421   0.4439339   0.4468907
          175         176         177         178         179         180
    1   0.4487389   0.4498319   0.4558162   0.4646795   0.4664028   0.4720569
          181         182         183         184         185         186
    1   0.4741117   0.4795680   0.4835641   0.4867333   0.4888986   0.4932593
          187         188         189         190         191         192
    1   0.5005483   0.5008187   0.5107485   0.5168675   0.5214618   0.5228873
          193         194         195         196         197         198
    1   0.5262384   0.5295879   0.5340840   0.5380692   0.5453746   0.5549331
          199         200         201         202         203         204
    1   0.5561149   0.5588136   0.5669533   0.5703988   0.5731747   0.5823131
          205         206         207         208         209         210
    1   0.5835181   0.5866771   0.6016321   0.6030271   0.6105948   0.6144127
          211         212         213         214         215         216
    1   0.6188938   0.6278886   0.6303446   0.6326827   0.6471943   0.6490037
          217         218         219         220         221         222
    1   0.6545240   0.6583519   0.6627145   0.6742646   0.6772108   0.6791869
          223         224         225         226         227         228
    1   0.6816139   0.6840801   0.6886392   0.6976836   0.6990037   0.7121754
          229         230         231         232         233         234
    1   0.7150801   0.7223399   0.7303175   0.7326672   0.7462068   0.7505357
          235         236         237         238         239         240
    1   0.7534277   0.7561849   0.7629839   0.7671000   0.7706449   0.7753285
          241         242         243         244         245         246
    1   0.7830302   0.7907798   0.7959628   0.8015201   0.8026010   0.8094972
          247         248         249         250         251         252
    1   0.8155575   0.8223977   0.8237422   0.8285963   0.8313387   0.8347878
          253         254         255         256         257         258
    1   0.8381886   0.8444966   0.8483023   0.8538275   0.8617006   0.8849309
          259         260         261         262         263         264
    1   0.8886068   0.8923279   0.8993062   0.9109333   0.9162939   0.9184242
          265         266         267         268         269         270
    1   0.9220908   0.9290939   0.9483927   0.9502341   0.9580706   0.9805203
          271         272         273         274         275         276
    1   0.9822833   0.9896685   1.0056073   1.0208058   1.0367025   1.0416569
          277         278         279         280         281         282
    1   1.0488763   1.0586565   1.0666607   1.0780258   1.0818377   1.0849788
          283         284         285         286         287         288
    1   1.0961272   1.0983119   1.1067394   1.1116970   1.1301233   1.1326772
          289         290         291         292         293         294
    1   1.1396191   1.1448551   1.1480795   1.1662294   1.1788729   1.1817190
          295         296         297         298         299         300
    1   1.1863034   1.1944258   1.2035889   1.2092437   1.2160598   1.2237441
          301         302         303         304         305         306
    1   1.2349065   1.2399542   1.2488793   1.2580872   1.2730957   1.2784479
          307         308         309         310         311         312
    1   1.2850974   1.2896734   1.3037965   1.3181031   1.3342235   1.3371754
          313         314         315         316         317         318
    1   1.3477326   1.3596720   1.3677119   1.3763960   1.3795794   1.3940825
          319         320         321         322         323         324
    1   1.4098108   1.4162200   1.4246790   1.4265902   1.4434282   1.4550653
          325         326         327         328         329         330
    1   1.4608143   1.4739277   1.4797709   1.4884671   1.4952836   1.5031276
          331         332         333         334         335         336
    1   1.5132976   1.5248828   1.5279997   1.5362964   1.5436868   1.5611820
          337         338         339         340         341         342
    1   1.5661536   1.5724958   1.5812021   1.5866492   1.5888717   1.5939052
          343         344         345         346         347         348
    1   1.5995696   1.6009695   1.6173233   1.6202424   1.6410014   1.6446081
          349         350         351         352         353         354
    1   1.6499378   1.6540286   1.6646675   1.6779569   1.6832576   1.6973664
          355         356         357         358         359         360
    1   1.7006980   1.7016097   1.7071316   1.7142884   1.7394136   1.7416107
          361         362         363         364         365         366
    1   1.7506406   1.7558861   1.7622358   1.7647658   1.7703649   1.7738074
          367         368         369         370         371         372
    1   1.7812266   1.7954416   1.8102170   1.8114940   1.8207263   1.8358027
          373         374         375         376         377         378
    1   1.8555399   1.8618867   1.8721694   1.8772181   1.8885686   1.9063775
          379         380         381         382         383         384
    1   1.9221825   1.9289774   1.9320650   1.9393892   1.9434099   1.9565099
          385         386         387         388         389         390
    1   1.9639474   1.9729931   1.9860059   1.9942031   2.0077854   2.0192855
          391         392         393         394         395         396
    1   2.0285702   2.0427634   2.0454949   2.0531999   2.0542987   2.0604849
          397         398         399         400         401         402
    1   2.0692254   2.0788605   2.0853840   2.1037671   2.1141474   2.1211964
          403         404         405         406         407         408
    1   2.1284781   2.1339519   2.1556425   2.1695659   2.1816904   2.1865168
          409         410         411         412         413         414
    1   2.1912489   2.1946663   2.2016189   2.2047255   2.2103288   2.2137530
          415         416         417         418         419         420
    1   2.2297371   2.2383577   2.2465719   2.2526516   2.2576397   2.2783949
          421         422         423         424         425         426
    1   2.2943452   2.2974414   2.3054344   2.3122759   2.3266993   2.3380852
          427         428         429         430         431         432
    1   2.3477172   2.3512152   2.3643255   2.3776973   2.3829643   2.3882832
          433         434         435         436         437         438
    1   2.4020452   2.4118840   2.4164287   2.4341527   2.4523272   2.4575102
          439         440         441         442         443         444
    1   2.4624649   2.4842088   2.4892945   2.5018899   2.5064441   2.5315831
          445         446         447         448         449         450
    1   2.5352141   2.5481220   2.5593850   2.5695423   2.5810153   2.5877044
          451         452         453         454         455         456
    1   2.5940270   2.5969536   2.6061979   2.6116887   2.6331891   2.6388647
          457         458         459         460         461         462
    1   2.6497307   2.6562097   2.6613980   2.6709987   2.6841684   2.6908497
          463         464         465         466         467         468
    1   2.7003487   2.7036191   2.7170876   2.7172292   2.7302557   2.7451604
          469         470         471         472         473         474
    1   2.7558591   2.7610041   2.7763258   2.7799216   2.7822614   2.7906141
          475         476         477         478         479         480
    1   2.8003259   2.8020196   2.8129282   2.8164294   2.8310564   2.8402569
          481         482         483         484         485         486
    1   2.8455028   2.8528444   2.8629609   2.8661272   2.8748649   2.8795674
          487         488         489         490         491         492
    1   2.8870337   2.8990956   2.9072943   2.9102540   2.9168236   2.9333814
          493         494         495         496         497         498
    1   2.9376921   2.9457365   2.9524107   2.9641570   2.9698248   2.9716069
          499         500         501         502         503         504
    1   2.9835633   2.9959490   2.9964333   3.0139756   3.0148272   3.0156577
          505         506         507         508         509         510
    1   3.0287575   3.0331568   3.0420353   3.0510684   3.0610506   3.0649949
          511         512         513         514         515         516
    1   3.0668423   3.0860769   3.0913129   3.0964845   3.1023891   3.1058937
          517         518         519         520         521         522
    1   3.1144817   3.1292984   3.1413693   3.1433106   3.1478058   3.1618855
          523         524         525         526         527         528
    1   3.1731809   3.1787489   3.1845044   3.1876801   3.1939921   3.2056379
          529         530         531         532         533         534
    1   3.2109635   3.2210095   3.2269720   3.2295030   3.2399966   3.2482828
          535         536         537         538         539         540
    1   3.2508638   3.2591169   3.2633078   3.2723848   3.2823856   3.2865556
          541         542         543         544         545         546
    1   3.2930709   3.3049987   3.3070696   3.3193311   3.3268443   3.3331004
          547         548         549         550         551         552
    1   3.3409857   3.3469320   3.3539874   3.3620337   3.3649410   3.3700855
          553         554         555         556         557         558
    1   3.3766641   3.3849119   3.3952529   3.4009913   3.4090115   3.4118856
          559         560         561         562         563         564
    1   3.4232619   3.4271852   3.4298781   3.4435256   3.4461160   3.4555404
          565         566         567         568         569         570
    1   3.4637808   3.4652792   3.4706988   3.4790923   3.4849967   3.4928501
          571         572         573         574         575         576
    1   3.5004616   3.5028978   3.5126886   3.5202944   3.5244542   3.5309248
          577         578         579         580         581         582
    1   3.5322530   3.5397928   3.5559842   3.5611166   3.5706887   3.5763472
          583         584         585         586         587         588
    1   3.5790572   3.5851834   3.5913096   3.6079295   3.6237608   3.6306325
          589         590         591         592         593         594
    1   3.6348003   3.6423011   3.6572697   3.6631804   3.6716146   3.6770834
          595         596         597         598         599         600
    1   3.6894253   3.6989245   3.7064573   3.7163826   3.7256332   3.7476351
          601         602         603         604         605         606
    1   3.7482133   3.7640113   3.7806930   3.7879575   3.7951005   3.8390715
          607         608         609         610         611         612
    1   3.8535434   3.8562805   3.8730563   3.8967650   3.9061163   3.9358831
          613         614         615         616         617         618
    1   3.9512547   3.9668370   3.9770995   3.9855633   3.9878065   4.0305488
          619         620         621         622         623         624
    1   4.0429019   4.0500016   4.0546951   4.0737176   4.0849012   4.0998663
          625         626         627         628         629         630
    1   4.1123199   4.1345976   4.1448507   4.1553842   4.1862304   4.1881560
          631         632         633         634         635         636
    1   4.1939421   4.2027732   4.2143660   4.2303495   4.2410172   4.2532037
          637         638         639         640         641         642
    1   4.2601728   4.2760083   4.2826000   4.2864468   4.2961486   4.2978620
          643         644         645         646         647         648
    1   4.3083312   4.3299593   4.3447802   4.3582254   4.3709049   4.3933803
          649         650         651         652         653         654
    1   4.4178456   4.4434902   4.4511482   4.4669106   4.4905719   4.5023277
          655         656         657         658         659         660
    1   4.5067476   4.5139397   4.5429533   4.5756889   4.5764872   4.5911590
          661         662         663         664         665         666
    1   4.6097662   4.6168806   4.6305428   4.6546655   4.6571201   4.6799890
          667         668         669         670         671         672
    1   4.6833538   4.7021114   4.7135266   4.7687767   4.8007293   4.8231532
          673         674         675         676         677         678
    1   4.8352923   4.8617710   4.8797564   4.9278892   4.9393236   4.9501624
          679         680         681         682         683         684
    1   4.9572410   4.9754192   5.0039405   5.0269060   5.0634633   5.0671562
          685         686         687         688         689         690
    1   5.1117939   5.1330513   5.1689340   5.1856879   5.2008578   5.2588934
          691         692         693         694         695         696
    1   5.2943569   5.3004401   5.3091637   5.3098275   5.3205924   5.3261020
          697         698         699         700         701         702
    1   5.3500810   5.3578110   5.3803992   5.3971876   5.4354780   5.4702694
          703         704         705         706         707         708
    1   5.4986338   5.5206540   5.5340395   5.5363653   5.5445235   5.5477230
          709         710         711         712         713         714
    1   5.5520127   5.5915373   5.6040640   5.6286205   5.6378524   5.6742174
          715         716         717         718         719         720
    1   5.7055503   5.7385327   5.8125255   5.8307621   5.8409314   5.8449060
          721         722         723         724         725         726
    1   5.8779407   5.8833823   5.9691515   5.9951842   6.0131397   6.0458122
          727         728         729         730         731         732
    1   6.0830421   6.1352783   6.1700733   6.2012566   6.2463895   6.2977777
          733         734         735         736         737         738
    1   6.3859482   6.4038555   6.4416237   6.4477937   6.4684503   6.4772457
          739         740         741         742         743         744
    1   6.4781628   6.4849321   6.4925632   6.4979816   6.6475410   6.6699711
          745         746         747         748         749         750
    1   6.6844214   6.6984944   6.7349567   6.7493863   6.7756904   6.7838175
          751         752         753         754         755         756
    1   6.7850673   6.8986631   6.9056733   6.9196113   6.9241022   6.9311965
          757         758         759         760         761         762
    1   6.9515513   6.9589361   6.9802999   7.0229336   7.1048531   7.1204487
          763         764         765         766         767         768
    1   7.1522146   7.2260587   7.2516601   7.2772215   7.3730371   7.3801864
          769         770         771         772         773         774
    1   7.4040224   7.5000127   7.5404168   7.5698691  22.4132057  22.4678460
          775         776         777         778         779         780
    1  22.5637936  22.7999991  22.8218052  22.8587581  22.8873648  22.9325778
          781         782         783         784         785         786
    1  22.9789598  23.0119673  23.0573360  23.0866225  23.2240102  23.3430738
          787         788         789         790         791         792
    1  23.5564331  23.6827366  44.0926466  44.1149357  44.1466826  44.1742200
          793         794
    1  44.4044670  44.6639828
 SCF time:   CPU 5717.40s  wall 477.00s 
 DFT Correlation          Energy =  -6.39372668514887
 DFT Exchange             Energy = -97.97716564751408
 HF Exchange              Energy = -38.23149859579532
 One-Electron             Energy = -4834.10325156585623
 SCRF wf-dependent energy Energy =  -0.66225123522395
 Total Coulomb            Energy = 2208.45648206043370
 Nuclear repulsion Energy = 1700.71189517393486

************** Final PCM Free Energy Summary **************
 G_electrostatic  =      -0.04439360 hartree =     -27.85740488 kcal/mol
 G_cavitation     =       0.00000000 hartree =       0.00000000 kcal/mol
 G_dispersion     =       0.00000000 hartree =       0.00000000 kcal/mol
 G_repulsion      =       0.00000000 hartree =       0.00000000 kcal/mol
 --------------------------------------------------
 Non-electrostatic Free Energy =       0.00000000 hartree =       0.00000000 kcal/mol
 Total                         =      -0.04439360 hartree =     -27.85740488 kcal/mol
 --------------------------------------------------
 SCF Energy (H0 + V/2)                       =   -1068.19951650 
 Solute Internal Energy (H0)                 =   -1068.15512289 
 Total Free Energy (H0 + V/2 + non-elec)     =   -1068.19951650 hartree
                                             = -670305.31679029 kcal/mol
***********************************************************

 SCF   energy = -1068.19951650
 Total energy = -1068.19951650
 MAX_CIS_SUBSPACE fits in available memory
 Direct TDDFT/TDA calculation will be performed
 Exchange:     0.1900 Hartree-Fock + 0.3500 B88 + 0.4600 muB88 + LR-HF
 Correlation:  0.1900 VWN5 + 0.8100 LYP
 Using SG-1 standard quadrature grid
 Triplet excitation energies requested
 Singlet excitation energies requested
 Adding PCM contribution to the XC response (LR-PCM)
 Optical dielectric constant (eps_inf) =  1.78
 CIS energy converged when residual is below 10e- 6
 ---------------------------------------------------
 Iter    Rts Conv    Rts Left    Ttl Dev     Max Dev
 ---------------------------------------------------
   1         0           7      0.000905    0.000140
   2         0           7      0.000365    0.000072
   3         0           7      0.000213    0.000087
   4         0           7      0.000127    0.000054
   5         1           6      0.000126    0.000083
   6         3           4      0.000069    0.000053
   7         3           4      0.000043    0.000035
   8         5           2      0.000016    0.000013
   9         6           1      0.000005    0.000003
  10         6           1      0.000003    0.000001
  11         7           0      0.000002    0.000000    Roots Converged
 ---------------------------------------------------
 Triplets done: starting singlet calculation
 ---------------------------------------------------
 Iter    Rts Conv    Rts Left    Ttl Dev     Max Dev
 ---------------------------------------------------
  12         0           7      0.002086    0.000377
  13         0           7      0.000636    0.000157
  14         0           7      0.000306    0.000061
  15         0           7      0.000171    0.000042
  16         0           7      0.000089    0.000033
  17         2           5      0.000044    0.000021
  18         3           4      0.000023    0.000012
  19         5           2      0.000012    0.000006
  20         6           1      0.000007    0.000003
  21         6           1      0.000005    0.000001
  22         7           0      0.000005    0.000001    Roots Converged
 ---------------------------------------------------
 
 ---------------------------------------------------
         TDDFT/TDA Excitation Energies              
 ---------------------------------------------------

 Excited state   1: excitation energy (eV) =       1.5976
 Total energy for state   1:                 -1068.14080679 au
    Multiplicity: Triplet
    Trans. Mom.:  0.0000 X   0.0000 Y   0.0000 Z
    Strength   :     0.0000000000
    D(   74) --> V(    1) amplitude =  0.0961
    D(   76) --> V(    1) amplitude =  0.1346
    D(   77) --> V(    2) amplitude =  0.0876
    D(   78) --> V(    1) amplitude =  0.9638

 Excited state   2: excitation energy (eV) =       2.5468
 Total energy for state   2:                 -1068.10592172 au
    Multiplicity: Singlet
    Trans. Mom.:  2.0869 X   1.7152 Y  -0.3443 Z
    Strength   :     0.4626860615
    D(   77) --> V(    1) amplitude =  0.1630
    D(   78) --> V(    1) amplitude =  0.9666
    D(   78) --> V(    2) amplitude =  0.0858

 Excited state   3: excitation energy (eV) =       2.6452
 Total energy for state   3:                 -1068.10230689 au
    Multiplicity: Triplet
    Trans. Mom.:  0.0000 X   0.0000 Y   0.0000 Z
    Strength   :     0.0000000000
    D(   72) --> V(    1) amplitude = -0.0762
    D(   73) --> V(    1) amplitude =  0.1246
    D(   74) --> V(    2) amplitude = -0.0728
    D(   76) --> V(    1) amplitude = -0.1745
    D(   77) --> V(    1) amplitude =  0.8777
    D(   78) --> V(    2) amplitude =  0.3403

 Excited state   4: excitation energy (eV) =       3.3923
 Total energy for state   4:                 -1068.07485018 au
    Multiplicity: Triplet
    Trans. Mom.:  0.0000 X   0.0000 Y   0.0000 Z
    Strength   :     0.0000000000
    D(   71) --> V(    1) amplitude = -0.1056
    D(   73) --> V(    1) amplitude = -0.0731
    D(   74) --> V(    1) amplitude =  0.3414
    D(   76) --> V(    1) amplitude =  0.7375
    D(   76) --> V(    8) amplitude =  0.0724
    D(   77) --> V(    1) amplitude =  0.0895
    D(   77) --> V(    2) amplitude = -0.3822
    D(   77) --> V(    8) amplitude =  0.1717
    D(   78) --> V(    1) amplitude = -0.1202
    D(   78) --> V(    2) amplitude =  0.1815
    D(   78) --> V(   10) amplitude =  0.0998
    D(   78) --> V(   11) amplitude = -0.1295

 Excited state   5: excitation energy (eV) =       3.5064
 Total energy for state   5:                 -1068.07065949 au
    Multiplicity: Singlet
    Trans. Mom.: -2.1752 X  -1.3298 Y   0.0891 Z
    Strength   :     0.5590560178
    D(   72) --> V(    1) amplitude = -0.0801
    D(   73) --> V(    1) amplitude =  0.0743
    D(   76) --> V(    1) amplitude = -0.1762
    D(   77) --> V(    1) amplitude =  0.9414
    D(   78) --> V(    1) amplitude = -0.1649
    D(   78) --> V(    2) amplitude =  0.1029

 Excited state   6: excitation energy (eV) =       3.5528
 Total energy for state   6:                 -1068.06895479 au
    Multiplicity: Triplet
    Trans. Mom.:  0.0000 X   0.0000 Y   0.0000 Z
    Strength   :     0.0000000000
    D(   75) --> V(    1) amplitude =  0.9353
    D(   75) --> V(    2) amplitude =  0.1504
    D(   75) --> V(    8) amplitude = -0.2206
    D(   75) --> V(   11) amplitude =  0.1130
    D(   75) --> V(   28) amplitude =  0.0814

 Excited state   7: excitation energy (eV) =       3.5802
 Total energy for state   7:                 -1068.06794576 au
    Multiplicity: Triplet
    Trans. Mom.:  0.0000 X   0.0000 Y   0.0000 Z
    Strength   :     0.0000000000
    D(   72) --> V(    1) amplitude = -0.0923
    D(   74) --> V(    1) amplitude =  0.1383
    D(   74) --> V(    2) amplitude =  0.0831
    D(   76) --> V(    1) amplitude = -0.1358
    D(   76) --> V(    2) amplitude =  0.1775
    D(   77) --> V(    1) amplitude = -0.3159
    D(   77) --> V(    2) amplitude =  0.1135
    D(   77) --> V(    8) amplitude =  0.1581
    D(   78) --> V(    2) amplitude =  0.7577
    D(   78) --> V(    3) amplitude =  0.0880
    D(   78) --> V(    4) amplitude = -0.1129
    D(   78) --> V(    8) amplitude =  0.3495

 Excited state   8: excitation energy (eV) =       3.7378
 Total energy for state   8:                 -1068.06215597 au
    Multiplicity: Singlet
    Trans. Mom.: -0.0947 X  -0.0414 Y   0.0178 Z
    Strength   :     0.0010083055
    D(   75) --> V(    1) amplitude =  0.9523
    D(   75) --> V(    2) amplitude =  0.1546
    D(   75) --> V(    8) amplitude = -0.1888
    D(   75) --> V(   11) amplitude =  0.0841

 Excited state   9: excitation energy (eV) =       3.8650
 Total energy for state   9:                 -1068.05748078 au
    Multiplicity: Triplet
    Trans. Mom.:  0.0000 X   0.0000 Y   0.0000 Z
    Strength   :     0.0000000000
    D(   67) --> V(    1) amplitude = -0.0770
    D(   72) --> V(    1) amplitude =  0.0916
    D(   74) --> V(    1) amplitude =  0.6359
    D(   74) --> V(    2) amplitude = -0.1854
    D(   74) --> V(    3) amplitude =  0.0859
    D(   74) --> V(    4) amplitude = -0.1253
    D(   74) --> V(    8) amplitude =  0.1134
    D(   76) --> V(    1) amplitude = -0.4278
    D(   76) --> V(    2) amplitude =  0.2645
    D(   76) --> V(    3) amplitude = -0.1349
    D(   76) --> V(    4) amplitude =  0.1976
    D(   77) --> V(    2) amplitude = -0.2760
    D(   78) --> V(    2) amplitude = -0.1090
    D(   78) --> V(    8) amplitude = -0.2134

 Excited state  10: excitation energy (eV) =       4.1100
 Total energy for state  10:                 -1068.04847587 au
    Multiplicity: Triplet
    Trans. Mom.:  0.0000 X   0.0000 Y   0.0000 Z
    Strength   :     0.0000000000
    D(   60) --> V(    1) amplitude =  0.0775
    D(   64) --> V(    1) amplitude = -0.0737
    D(   72) --> V(    1) amplitude = -0.4300
    D(   72) --> V(    2) amplitude = -0.1100
    D(   73) --> V(    1) amplitude = -0.6007
    D(   74) --> V(    1) amplitude =  0.1640
    D(   74) --> V(    2) amplitude = -0.1724
    D(   76) --> V(    1) amplitude = -0.0792
    D(   76) --> V(    2) amplitude = -0.1084
    D(   76) --> V(    8) amplitude = -0.0969
    D(   77) --> V(    1) amplitude =  0.1152
    D(   77) --> V(    2) amplitude =  0.1980
    D(   77) --> V(    3) amplitude =  0.0777
    D(   77) --> V(    4) amplitude = -0.1088
    D(   77) --> V(    8) amplitude =  0.1845
    D(   78) --> V(    2) amplitude = -0.1785
    D(   78) --> V(    8) amplitude =  0.2640
    D(   78) --> V(   10) amplitude =  0.1191
    D(   78) --> V(   11) amplitude = -0.2029
    D(   78) --> V(   13) amplitude = -0.1185
    D(   78) --> V(   28) amplitude = -0.1008

 Excited state  11: excitation energy (eV) =       4.2260
 Total energy for state  11:                 -1068.04421332 au
    Multiplicity: Singlet
    Trans. Mom.: -0.1229 X   0.0319 Y   0.0276 Z
    Strength   :     0.0017470795
    D(   74) --> V(    1) amplitude = -0.1147
    D(   74) --> V(    2) amplitude =  0.0810
    D(   74) --> V(    8) amplitude = -0.0785
    D(   76) --> V(    1) amplitude =  0.8902
    D(   76) --> V(    2) amplitude = -0.1137
    D(   77) --> V(    1) amplitude =  0.1746
    D(   77) --> V(    2) amplitude = -0.1248
    D(   77) --> V(    3) amplitude =  0.0886
    D(   77) --> V(    4) amplitude = -0.1293
    D(   78) --> V(    2) amplitude = -0.2052
    D(   78) --> V(    3) amplitude = -0.1009
    D(   78) --> V(    4) amplitude =  0.1363

 Excited state  12: excitation energy (eV) =       4.4971
 Total energy for state  12:                 -1068.03425225 au
    Multiplicity: Singlet
    Trans. Mom.:  0.9363 X   0.3778 Y   0.1149 Z
    Strength   :     0.1137668619
    D(   73) --> V(    1) amplitude = -0.0949
    D(   74) --> V(    1) amplitude = -0.4719
    D(   74) --> V(    2) amplitude =  0.0867
    D(   76) --> V(    1) amplitude =  0.1374
    D(   77) --> V(    1) amplitude = -0.1000
    D(   77) --> V(    2) amplitude =  0.1818
    D(   77) --> V(    4) amplitude = -0.0738
    D(   77) --> V(   10) amplitude = -0.0752
    D(   77) --> V(   11) amplitude =  0.1008
    D(   78) --> V(    2) amplitude =  0.7666
    D(   78) --> V(    8) amplitude =  0.2069

[...]
      XZZZ     194.3289   YZZZ     306.8323   ZZZZ    -724.5771
    5th-Order Moments (Debye-Ang^4)
       500   19535.3566    410  -10909.7026    320    -293.2432
       230  -13102.5548    140   -8683.0082    050  -60467.1465
       401   -1136.1487    311    -897.3639    221     224.2256
       131    -596.1864    041     -41.9232    302    4314.6324
       212   -1654.7772    122   -1122.4536    032   -8162.5805
       203    -573.9048    113    -456.0662    023    1524.0348
       104    1024.6335    014    -842.2576    005   -1228.9628
 -----------------------------------------------------------------
 -----------------------------------------------------------------
                 RPA Excited-State Multipoles, State    4   
                  LMN = < X^L Y^M Z^N >
 -----------------------------------------------------------------
    Charge (ESU x 10^10)
                -0.0000
    Dipole Moment (Debye)
         X       2.2561      Y       9.7714      Z      -3.1674
       Tot      10.5168
    Quadrupole Moments (Debye-Ang)
        XX    -123.8502     XY     -20.7298     YY     -79.5202
        XZ      15.4669     YZ      -4.4332     ZZ    -131.3883
    Octopole Moments (Debye-Ang^2)
       XXX     185.6063    XXY    -304.1343    XYY     120.7993
       YYY    -478.4373    XXZ     -88.2931    XYZ     -37.5765
       YYZ    -121.3985    XZZ     155.9049    YZZ    -301.3738
       ZZZ    -115.0258
    Hexadecapole Moments (Debye-Ang^3)
      XXXX   -4956.3230   XXXY    -852.0024   XXYY   -2924.8949
      XYYY    -939.7510   YYYY   -5930.4760   XXXZ     375.5879
      XXYZ     235.7090   XYYZ      82.9662   YYYZ    -177.0677
      XXZZ   -1361.0658   XYZZ    -300.9825   YYZZ   -1628.1109
      XZZZ     199.8746   YZZZ     307.6124   ZZZZ    -724.6537
    5th-Order Moments (Debye-Ang^4)
       500   19469.8343    410  -10610.8787    320    -318.9277
       230  -13119.4021    140   -8263.9354    050  -56622.8565
       401   -1511.1056    311    -897.4186    221     186.8421
       131    -658.0014    041    -428.2076    302    4360.2203
       212   -1638.3215    122   -1107.3149    032   -8080.7435
       203    -606.3873    113    -468.0982    023    1505.4215
       104    1036.5166    014    -832.0295    005   -1230.0173
 -----------------------------------------------------------------
 -----------------------------------------------------------------
                 RPA Excited-State Multipoles, State    5   
                  LMN = < X^L Y^M Z^N >
 -----------------------------------------------------------------
    Charge (ESU x 10^10)
                -0.0000
    Dipole Moment (Debye)
         X       2.4747      Y      10.2346      Z      -3.6623
       Tot      11.1482
    Quadrupole Moments (Debye-Ang)
        XX    -110.8113     XY     -15.9706     YY     -80.9206
        XZ      16.5743     YZ      -3.3137     ZZ    -132.6562
    Octopole Moments (Debye-Ang^2)
       XXX     157.5625    XXY    -281.3495    XYY     143.5218
       YYY    -499.0805    XXZ     -86.2699    XYZ     -37.1154
       YYZ    -115.8262    XZZ     158.5110    YZZ    -301.7156
       ZZZ    -117.7682
    Hexadecapole Moments (Debye-Ang^3)
      XXXX   -4707.5545   XXXY    -793.9927   XXYY   -2826.2015
      XYYY    -836.3586   YYYY   -6126.6959   XXXZ     356.9734
      XXYZ     238.6744   XYYZ      86.9298   YYYZ    -138.3190
      XXZZ   -1357.9221   XYZZ    -298.9853   YYZZ   -1634.2812
      XZZZ     206.3839   YZZZ     310.2094   ZZZZ    -733.0623
    5th-Order Moments (Debye-Ang^4)
       500   18645.3677    410  -10417.9724    320     -33.2650
       230  -12655.0898    140   -7779.4621    050  -58160.1315
       401   -1385.4711    311    -919.2970    221     182.1059
       131    -645.2583    041    -185.4391    302    4356.0215
       212   -1624.8873    122   -1096.2404    032   -8118.1504
       203    -610.4293    113    -467.0143    023    1514.5036
       104    1054.1092    014    -831.9436    005   -1253.3501
 -----------------------------------------------------------------
 -----------------------------------------------------------------
                 RPA Excited-State Multipoles, State    6   
                  LMN = < X^L Y^M Z^N >
 -----------------------------------------------------------------
    Charge (ESU x 10^10)
                -0.0000
    Dipole Moment (Debye)
         X       2.3460      Y       7.3491      Z      -2.1381
       Tot       8.0053
    Quadrupole Moments (Debye-Ang)
        XX    -129.2447     XY     -22.1773     YY     -91.6908
        XZ      14.4353     YZ      -4.4644     ZZ    -129.7950
    Octopole Moments (Debye-Ang^2)
       XXX     235.1287    XXY    -308.8591    XYY      95.1270
       YYY    -575.0014    XXZ     -83.1537    XYZ     -29.0440
       YYZ    -109.6666    XZZ     151.5247    YZZ    -305.2588
       ZZZ    -110.7827
    Hexadecapole Moments (Debye-Ang^3)
      XXXX   -5278.3301   XXXY    -836.1766   XXYY   -2917.3896
      XYYY   -1055.1055   YYYY   -6552.0100   XXXZ     368.5392
      XXYZ     219.5876   XYYZ      89.4021   YYYZ    -119.9726
      XXZZ   -1351.5978   XYZZ    -294.7812   YYZZ   -1635.7110
      XZZZ     191.2873   YZZZ     305.3319   ZZZZ    -715.8490
    5th-Order Moments (Debye-Ang^4)
       500   21597.4952    410  -10729.4258    320    -451.6003
       230  -13284.0779    140   -9034.7159    050  -60752.1316
       401   -1486.5773    311    -813.3275    221     238.3908
       131    -567.4500    041     -24.3286    302    4358.9589
       212   -1670.7793    122   -1135.8342    032   -8166.5750
       203    -574.4573    113    -444.9264    023    1529.5692
       104    1014.2484    014    -844.2625    005   -1207.0155
 -----------------------------------------------------------------
 -----------------------------------------------------------------
                 RPA Excited-State Multipoles, State    7   
                  LMN = < X^L Y^M Z^N >
 -----------------------------------------------------------------
    Charge (ESU x 10^10)
                -0.0000
    Dipole Moment (Debye)
         X      -4.3015      Y      -1.8750      Z       1.0500
       Tot       4.8084
    Quadrupole Moments (Debye-Ang)
        XX    -110.4099     XY      -4.7580     YY    -101.7918
        XZ      -1.5851     YZ     -12.1915     ZZ    -126.0626
    Octopole Moments (Debye-Ang^2)
       XXX     155.5863    XXY    -404.4420    XYY      56.7530
       YYY    -668.8839    XXZ     -19.7224    XYZ      -1.9391
       YYZ     -93.7609    XZZ     128.5509    YZZ    -323.2589
       ZZZ    -102.8116
    Hexadecapole Moments (Debye-Ang^3)
      XXXX   -5033.7110   XXXY    -499.0085   XXYY   -2894.5783
      XYYY   -1080.8858   YYYY   -6936.9592   XXXZ     113.7250
      XXYZ     121.2805   XYYZ      40.7927   YYYZ    -124.6071
      XXZZ   -1266.8110   XYZZ    -244.0303   YYZZ   -1625.0089
      XZZZ     147.2923   YZZZ     278.7011   ZZZZ    -707.2120
    5th-Order Moments (Debye-Ang^4)
       500   20682.7976    410  -12380.2658    320    -842.7278
       230  -13849.0876    140   -9664.6839    050  -63136.8748
       401    -418.9296    311    -420.5821    221     453.2321
       131    -447.8655    041     169.9140    302    4020.4104
       212   -1877.9346    122   -1231.0785    032   -8270.9634
       203    -401.4581    113    -356.6025    023    1575.8538
       104     944.6488    014    -902.1508    005   -1197.5783
 -----------------------------------------------------------------
 -----------------------------------------------------------------
                 RPA Excited-State Multipoles, State    8   
                  LMN = < X^L Y^M Z^N >
 -----------------------------------------------------------------
    Charge (ESU x 10^10)
                -0.0000
    Dipole Moment (Debye)
         X       6.1201      Y      11.1670      Z      -2.9979
       Tot      13.0822
    Quadrupole Moments (Debye-Ang)
        XX    -136.0894     XY     -18.3256     YY     -75.6700
        XZ      16.5825     YZ      -3.7716     ZZ    -131.1444
    Octopole Moments (Debye-Ang^2)
       XXX     278.5608    XXY    -307.8395    XYY     112.6189
       YYY    -478.7731    XXZ     -86.1545    XYZ     -32.4207
       YYZ    -116.2180    XZZ     157.9353    YZZ    -300.5729
       ZZZ    -114.2971
    Hexadecapole Moments (Debye-Ang^3)
      XXXX   -5399.5500   XXXY    -807.3637   XXYY   -2971.9433
      XYYY   -1052.2596   YYYY   -6020.6465   XXXZ     390.6032
      XXYZ     251.5127   XYYZ     103.4940   YYYZ    -152.3992
      XXZZ   -1369.8090   XYZZ    -297.5165   YYZZ   -1623.3426
      XZZZ     200.2279   YZZZ     308.1449   ZZZZ    -722.8554
    5th-Order Moments (Debye-Ang^4)
       500   22144.1960    410  -10870.3933    320    -363.8453
       230  -13510.8409    140   -9126.1333    050  -57491.2158
       401   -1491.3380    311    -865.6712    221     262.6169
       131    -558.1145    041    -307.6895    302    4435.5095
       212   -1643.7653    122   -1108.3634    032   -8067.8040
       203    -600.1862    113    -458.4103    023    1513.5220
       104    1036.5280    014    -831.5672    005   -1224.1178
 -----------------------------------------------------------------
 -----------------------------------------------------------------
                 RPA Excited-State Multipoles, State    9   
                  LMN = < X^L Y^M Z^N >
 -----------------------------------------------------------------
    Charge (ESU x 10^10)
                -0.0000
    Dipole Moment (Debye)
         X      -4.9381      Y      -2.3333      Z       1.1281
       Tot       5.5769
    Quadrupole Moments (Debye-Ang)
        XX    -107.6881     XY      -4.1806     YY    -102.5520
        XZ      -2.2655     YZ     -12.4878     ZZ    -126.0273
    Octopole Moments (Debye-Ang^2)
       XXX     142.3368    XXY    -407.5247    XYY      55.2322
       YYY    -672.8808    XXZ     -16.7654    XYZ      -0.9863
       YYZ     -93.5503    XZZ     127.5370    YZZ    -323.8038
       ZZZ    -102.9840
    Hexadecapole Moments (Debye-Ang^3)
      XXXX   -4976.5241   XXXY    -492.5548   XXYY   -2894.5117
      XYYY   -1084.2218   YYYY   -6954.0685   XXXZ     101.8279
      XXYZ     118.0204   XYYZ      39.8765   YYYZ    -124.9878
      XXZZ   -1262.3249   XYZZ    -242.8203   YYZZ   -1625.2380
      XZZZ     146.3510   YZZZ     278.1304   ZZZZ    -708.5948
    5th-Order Moments (Debye-Ang^4)
       500   20409.8207    410  -12409.8693    320    -863.0670
       230  -13867.8144    140   -9691.2248    050  -63223.6349
       401    -371.6277    311    -408.8107    221     457.6020
       131    -444.5719    041     173.0255    302    4001.0933
       212   -1882.8457    122   -1233.3239    032   -8274.2540
       203    -396.4595    113    -354.8756    023    1576.0678
       104     945.3676    014    -902.6947    005   -1204.1389
 -----------------------------------------------------------------
 -----------------------------------------------------------------
                 RPA Excited-State Multipoles, State   10   
                  LMN = < X^L Y^M Z^N >
 -----------------------------------------------------------------
    Charge (ESU x 10^10)
                -0.0000
    Dipole Moment (Debye)
         X       4.1876      Y       7.1976      Z      -1.6472
       Tot       8.4885
    Quadrupole Moments (Debye-Ang)
        XX    -136.5098     XY     -21.7888     YY     -97.5416
        XZ      15.1969     YZ      -2.0765     ZZ    -129.8782
    Octopole Moments (Debye-Ang^2)
       XXX     277.7465    XXY    -308.6575    XYY     104.3505
       YYY    -603.7424    XXZ     -84.8603    XYZ     -34.1912
       YYZ    -106.4992    XZZ     155.8241    YZZ    -303.9232
       ZZZ    -109.6599
    Hexadecapole Moments (Debye-Ang^3)
      XXXX   -5419.2945   XXXY    -786.9787   XXYY   -2940.0342
      XYYY   -1053.8496   YYYY   -6751.7894   XXXZ     376.6027
      XXYZ     242.5528   XYYZ      95.4958   YYYZ     -92.7923
      XXZZ   -1366.3739   XYZZ    -299.5920   YYZZ   -1643.1947
      XZZZ     196.5453   YZZZ     312.4890   ZZZZ    -716.1224
    5th-Order Moments (Debye-Ang^4)
       500   22274.8083    410  -10871.3328    320    -228.4704
       230  -13277.4858    140   -9057.9656    050  -62000.2262
       401   -1479.1697    311    -887.7504    221     237.5768
       131    -564.9870    041     104.5857    302    4426.3623
       212   -1650.8509    122   -1120.9299    032   -8187.8833
       203    -590.0522    113    -461.6289    023    1532.9595
       104    1033.1337    014    -836.0097    005   -1203.3852
 -----------------------------------------------------------------
 -----------------------------------------------------------------
                 RPA Excited-State Multipoles, State   11   
                  LMN = < X^L Y^M Z^N >
 -----------------------------------------------------------------
    Charge (ESU x 10^10)
                -0.0000
    Dipole Moment (Debye)
         X       7.5855      Y      16.0875      Z      -4.5349
       Tot      18.3551
    Quadrupole Moments (Debye-Ang)
        XX    -138.0971     XY     -15.9518     YY     -45.7752
        XZ      18.2169     YZ      -6.7922     ZZ    -132.2797
    Octopole Moments (Debye-Ang^2)
       XXX     269.7805    XXY    -303.6218    XYY     136.1939
       YYY    -288.7152    XXZ     -93.2885    XYZ     -36.1162
       YYZ    -135.4834    XZZ     161.6270    YZZ    -296.7521
       ZZZ    -118.7841
    Hexadecapole Moments (Debye-Ang^3)
      XXXX   -5356.4669   XXXY    -838.5435   XXYY   -2951.2858
      XYYY    -905.3628   YYYY   -4852.2738   XXXZ     408.8331
      XXYZ     245.8744   XYYZ      88.9044   YYYZ    -258.7905
      XXZZ   -1376.7403   XYZZ    -297.6567   YYZZ   -1603.5009
      XZZZ     207.6794   YZZZ     303.6494   ZZZZ    -730.1666
    5th-Order Moments (Debye-Ang^4)
       500   21657.0999    410  -10790.2860    320    -378.7193
       230  -13297.4018    140   -8160.8449    050  -50207.6538
       401   -1585.7622    311    -879.9115    221     215.2221
       131    -660.0384    041    -958.6504    302    4446.8598
       212   -1634.1385    122   -1091.1975    032   -7929.9734
       203    -622.2262    113    -465.8185    023    1478.7183
       104    1054.8085    014    -822.6496    005   -1248.9662
 -----------------------------------------------------------------
 -----------------------------------------------------------------
                 RPA Excited-State Multipoles, State   12   
                  LMN = < X^L Y^M Z^N >
 -----------------------------------------------------------------
    Charge (ESU x 10^10)
                -0.0000
    Dipole Moment (Debye)
         X       1.6115      Y       6.7345      Z      -2.0852
       Tot       7.2318
    Quadrupole Moments (Debye-Ang)
        XX    -128.4077     XY     -21.8032     YY     -93.7645
        XZ      13.0090     YZ      -4.8942     ZZ    -129.9412
    Octopole Moments (Debye-Ang^2)
       XXX     250.3515    XXY    -311.9267    XYY      89.0909
       YYY    -595.8668    XXZ     -76.2917    XYZ     -26.7874
       YYZ    -106.8891    XZZ     149.6689    YZZ    -307.1286
       ZZZ    -110.8181
    Hexadecapole Moments (Debye-Ang^3)
      XXXX   -5387.5102   XXXY    -790.6607   XXYY   -2909.5382
      XYYY   -1083.1327   YYYY   -6693.8451   XXXZ     338.8753
      XXYZ     218.9600   XYYZ      91.7280   YYYZ    -106.6128
      XXZZ   -1348.0483   XYZZ    -292.1592   YYZZ   -1638.1394
      XZZZ     186.8400   YZZZ     302.9377   ZZZZ    -716.6979
    5th-Order Moments (Debye-Ang^4)
       500   22521.6063    410  -10944.1649    320    -431.5221
       230  -13316.4927    140   -9244.7813    050  -61724.2956
       401   -1326.8404    311    -803.4668    221     263.4737
       131    -536.0067    041      68.9735    302    4360.7858
       212   -1682.3079    122   -1142.8089    032   -8189.7629
       203    -557.9322    113    -437.3789    023    1535.1211
       104    1005.7339    014    -852.9204    005   -1207.1891
 -----------------------------------------------------------------
 -----------------------------------------------------------------
                 RPA Excited-State Multipoles, State   13   
                  LMN = < X^L Y^M Z^N >
 -----------------------------------------------------------------
    Charge (ESU x 10^10)
                -0.0000
    Dipole Moment (Debye)
         X       4.0652      Y      10.7824      Z      -3.6291
       Tot      12.0813
    Quadrupole Moments (Debye-Ang)
        XX    -113.2085     XY     -14.3496     YY     -79.7817
        XZ      17.6231     YZ      -3.4825     ZZ    -132.1801
    Octopole Moments (Debye-Ang^2)
       XXX     191.0129    XXY    -257.4333    XYY     152.5465
       YYY    -509.9323    XXZ     -96.2955    XYZ     -33.2491
       YYZ    -110.9653    XZZ     157.0208    YZZ    -302.7140
       ZZZ    -116.6561
    Hexadecapole Moments (Debye-Ang^3)
      XXXX   -4737.3118   XXXY    -808.7822   XXYY   -2742.9306
      XYYY    -785.3062   YYYY   -6250.1420   XXXZ     419.9890
      XXYZ     222.8425   XYYZ      90.8117   YYYZ    -111.5169
      XXZZ   -1354.6091   XYZZ    -296.7151   YYZZ   -1635.4195
      XZZZ     204.1303   YZZZ     309.1010   ZZZZ    -729.9571
    5th-Order Moments (Debye-Ang^4)
       500   18971.9786    410   -9768.5067    320     112.6136
       230  -12321.3396    140   -7551.9988    050  -59202.6391
       401   -1767.3128    311    -836.9565    221     176.3108
       131    -619.3659    041     -10.4574    302    4360.7088
       212   -1619.3529    122   -1096.2480    032   -8140.8667
       203    -616.7254    113    -458.8932    023    1525.1665
       104    1042.2666    014    -838.2837    005   -1243.4740
 -----------------------------------------------------------------
 -----------------------------------------------------------------
                 RPA Excited-State Multipoles, State   14   
                  LMN = < X^L Y^M Z^N >
 -----------------------------------------------------------------
    Charge (ESU x 10^10)
                -0.0000
    Dipole Moment (Debye)
         X       2.0622      Y       7.2417      Z      -2.3448
       Tot       7.8863
    Quadrupole Moments (Debye-Ang)
        XX    -136.1346     XY     -21.1664     YY    -106.2832
        XZ      15.6343     YZ      -6.9170     ZZ    -142.9902
    Octopole Moments (Debye-Ang^2)
       XXX     286.3537    XXY    -315.2603    XYY     130.4292
       YYY    -613.3010    XXZ     -95.0445    XYZ     -22.3743
       YYZ    -127.6396    XZZ     182.6627    YZZ    -317.2128
       ZZZ    -138.3360
    Hexadecapole Moments (Debye-Ang^3)
      XXXX   -5767.2806   XXXY    -773.3576   XXYY   -3043.0247
      XYYY    -976.1347   YYYY   -6892.6475   XXXZ     398.3031
      XXYZ     184.4967   XYYZ     118.0457   YYYZ    -149.9874
      XXZZ   -1502.5347   XYZZ    -276.0454   YYZZ   -1721.3550
      XZZZ     244.7901   YZZZ     293.2559   ZZZZ    -889.7435
    5th-Order Moments (Debye-Ang^4)
       500   25224.9235    410  -11246.9539    320     269.7682
       230  -13376.1696    140   -8263.1606    050  -62199.5130
       401   -1703.2526    311    -757.2230    221      53.4457
       131    -583.0853    041    -295.6209    302    5021.0048
       212   -1767.0356    122    -984.4280    032   -8345.7677
       203    -821.7907    113    -436.6802    023    1368.1369
       104    1389.9574    014    -931.3374    005   -1718.0462
 -----------------------------------------------------------------
 Total job time:  4509.03s(wall), 62555.75s(cpu) 
 Fri Jan 31 01:45:21 2025

        *************************************************************
        *                                                           *
        *  Thank you very much for using Q-Chem.  Have a nice day.  *
        *                                                           *
        *************************************************************


