
Running Job 1 of 1 Peonidin_H_tddft_full.in
qchem Peonidin_H_tddft_full.in_2253660.0 /data/brussel/103/vsc10365/activedata/TDDFTAnthocyanidines/qchem2253660/ 1
/apps/brussel/RL8/skylake/software/Q-Chem/6.2.0/exe/qcprog.exe_s Peonidin_H_tddft_full.in_2253660.0 /data/brussel/103/vsc10365/activedata/TDDFTAnthocyanidines/qchem2253660/
                  Welcome to Q-Chem
     A Quantum Leap Into The Future Of Chemistry


 Q-Chem 6.2, Q-Chem, Inc., Pleasanton, CA (2024)

 License issued to: SRG Prof. Dr. Frank De Proft, Vrije Universiteit Brussel

 E. Epifanovsky,  A. T. B. Gilbert,  Xintian Feng,  Joonho Lee,  Yuezhi Mao,  
 N. Mardirossian,  P. Pokhilko,  A. White,  M. Wormit,  M. P. Coons,  
 A. L. Dempwolff,  Zhengting Gan,  D. Hait,  P. R. Horn,  L. D. Jacobson,  
 I. Kaliman,  J. Kussmann,  A. W. Lange,  Ka Un Lao,  D. S. Levine,  Jie Liu,  
 S. C. McKenzie,  A. F. Morrison,  K. D. Nanda,  F. Plasser,  D. R. Rehn,  
 M. L. Vidal,  Zhi-Qiang You,  Ying Zhu,  Huseyin Aksu,  B. Alam,  
 B. Albrecht,  A. Aldossary,  E. Alguire,  J. H. Andersen,  
 J. E. Arias-Martinez,  V. Athavale,  D. Barton,  K. Begam,  A. Behn,  
 N. Bellonzi,  Y. A. Bernard,  E. J. Berquist,  H. Burton,  A. Carreras,  
 K. Carter-Fenk,  Mathew Chow,  Romit Chakraborty,  Chandrima Chakravarty,  
 Junhan Chen,  A. D. Chien,  K. D. Closser,  V. Cofer-Shabica,  L. Cunha,  
 S. Dasgupta,  Jia Deng,  Joseph Dickinson,  M. de Wergifosse,  
 M. Diedenhofen,  Hainam Do,  Wenjie Dou,  S. Ehlert,  Po-Tung Fang,  
 S. Fatehi,  Qingguo Feng,  Jonathan Fetherolf,  T. Friedhoff,  
 Thomas Froitzheim,  Sarai Folkestad,  B. Ganoe,  J. Gayvert,  Qinghui Ge,  
 G. Gidofalvi,  M. Gimferrer,  M. Goldey,  Montgomery Gray,  J. Gomes,  
 C. Gonzalez-Espinoza,  S. Gulania,  A. Gunina,  J. A. Gyamfi,  
 M. W. D. Hanson-Heine,  P. H. P. Harbach,  A. W. Hauser,  M. F. Herbst,  
 M. Hernandez Vera,  M. Hodecker,  Z. C. Holden,  S. Houck,  Xunkun Huang,  
 Kerwin Hui,  B. C. Huynh,  K. Ikeda,  M. Ivanov,  Nayanthara K. Jayadev,  
 Hyunjun Ji,  Zuxin Jin,  Hanjie Jiang,  Subrata Jana,  B. Kaduk,  
 S. Kaehler,  R. Kang,  K. Khistyaev,  Jaehoon Kim,  Yongbin Kim,  
 P. Klunzinger,  Z. Koczor-Benda,  Joong Hoon Koh,  D. Kosenkov,  
 Saikiran Kotaru,  L. Koulias,  T. Kowalczyk,  C. M. Krauter,  K. Kue,  
 A. Kunitsa,  T. Kus,  A. Landau,  K. V. Lawler,  D. Lefrancois,  S. Lehtola,  
 Rain Li,  Shaozhi Li,  Tao E. Li,  Yi-Pei Li,  Jiashu Liang,  M. Liebenthal,  
 Hung-Hsuan Lin,  You-Sheng Lin,  Fenglai Liu,  Kuan-Yu Liu,  Xiao Liu,  
 M. Loipersberger,  A. Luenser,  C. Malbon,  Aniket Mandal,  Manisha,  
 A. Manjanath,  P. Manohar,  E. Mansoor,  S. F. Manzer,  Shan-Ping Mao,  
 A. V. Marenich,  T. Markovich,  S. Mason,  F. Matz,  S. A. Maurer,  
 Samuel May,  Alexandra McIsaac,  P. F. McLaughlin,  M. F. S. J. Menger,  
 J.-M. Mewes,  S. A. Mewes,  P. Morgante,  Mohammad Mostafanejad,  
 Madhubani Mukherjee,  J. W. Mullinax,  Quyen Nguyen,  Avik Kumar Ojha,  
 K. J. Oosterbaan,  Eno Paenurk,  Xiaoliang Pan,  G. Paran,  V. Parravicini,  
 Alexander C. Paul,  Suranjan K. Paul,  F. Pavosevic,  Zheng Pei,  S. Prager,  
 E. I. Proynov,  E. Ramos,  B. Rana,  A. E. Rask,  A. Rettig,  R. M. Richard,  
 F. Rob,  E. Rossomme,  T. Scheele,  M. Scheurer,  M. Schneider,  
 P. E. Schneider,  Tim K. Schramm,  N. Sergueev,  S. M. Sharada,  
 Hengyuan Shen,  W. Skomorowski,  D. W. Small,  C. J. Stein,  
 Alistair J. Sterling,  Yingli Su,  Yu-Chuan Su,  E. J. Sundstrom,  
 J. Talbot,  Zhen Tao,  J. Thirman,  Hung-Yi Tsai,  T. Tsuchimochi,  
 N. M. Tubman,  C. Utku,  S. P. Veccham,  O. Vydrov,  Rahel Weiss,  
 J. Wenzel,  Jonathan Wong,  J. Witte,  H. Wu,  Yanze Wu,  A. Yamada,  
 Chou-Hsun Yang,  Kun Yao,  S. Yeganeh,  S. R. Yost,  Qi Yu,  A. Zech,  
 F. Zeller,  Chongxiao Zhao,  Igor Ying Zhang,  Xing Zhang,  Yu Zhang,  
 D. Zuev,  A. Aspuru-Guzik,  A. T. Bell,  N. A. Besley,  K. B. Bravaya,  
 B. R. Brooks,  D. Casanova,  Jeng-Da Chai,  Hsing-Ta Chen,  S. Coriani,  
 C. J. Cramer,  A. E. DePrince, III,  R. A. DiStasio Jr.,  A. Dreuw,  
 B. D. Dunietz,  T. R. Furlani,  W. A. Goddard III,  S. Grimme,  
 S. Hammes-Schiffer,  T. Head-Gordon,  W. J. Hehre,  Chao-Ping Hsu,  
 T.-C. Jagau,  Yousung Jung,  A. Klamt,  Jing Kong,  D. S. Lambrecht,  
 Xiangyuan Li,  WanZhen Liang,  N. J. Mayhall,  C. W. McCurdy,  J. B. Neaton,  
 T. Neudecker,  C. Ochsenfeld,  J. A. Parkhill,  R. Peverati,  
 V. A. Rassolov,  Haisheng Ren,  Yihan Shao,  L. V. Slipchenko,  
 R. P. Steele,  J. E. Subotnik,  A. J. W. Thom,  A. Tkatchenko,  
 D. G. Truhlar,  T. Van Voorhis,  Fan Wang,  T. A. Wesolowski,  K. B. Whaley,  
 H. L. Woodcock III,  P. M. Zimmerman,  S. Faraji,  P. M. W. Gill,  
 M. Head-Gordon,  J. M. Herbert,  A. I. Krylov

 Contributors to earlier versions of Q-Chem not listed above: 
 R. D. Adamson,  B. Austin,  R. Baer,  J. Baker,  G. J. O. Beran,  
 K. Brandhorst,  S. T. Brown,  E. F. C. Byrd,  Arup K. Chakraborty,  
 G. K. L. Chan,  Chun-Min Chang,  Yunqing Chen,  C.-L. Cheng,  
 Siu Hung Chien,  D. M. Chipman,  D. L. Crittenden,  H. Dachsel,  
 R. J. Doerksen,  A. D. Dutoi,  R. G. Edgar,  J. Fosso-Tande,  
 L. Fusti-Molnar,  D. Ghosh,  A. Ghysels,  A. Golubeva-Zadorozhnaya,  
 J. Gonthier,  M. S. Gordon,  S. R. Gwaltney,  G. Hawkins,  J. E. Herr,  
 A. Heyden,  S. Hirata,  E. G. Hohenstein,  G. Kedziora,  F. J. Keil,  
 C. Kelley,  Jihan Kim,  R. A. King,  R. Z. Khaliullin,  P. P. Korambath,  
 W. Kurlancheek,  A. Laurent,  A. M. Lee,  M. S. Lee,  S. V. Levchenko,  
 Ching Yeh Lin,  D. Liotard,  E. Livshits,  R. C. Lochan,  I. Lotan,  
 L. A. Martinez-Martinez,  P. E. Maslen,  N. Nair,  D. P. O'Neill,  
 D. Neuhauser,  E. Neuscamman,  C. M. Oana,  R. Olivares-Amaya,  R. Olson,  
 T. M. Perrine,  B. Peters,  P. A. Pieniazek,  A. Prociuk,  Y. M. Rhee,  
 J. Ritchie,  M. A. Rohrdanz,  E. Rosta,  N. J. Russ,  H. F. Schaefer III,  
 M. W. Schmidt,  N. E. Schultz,  S. Sharma,  N. Shenvi,  C. D. Sherrill,  
 A. C. Simmonett,  A. Sodt,  T. Stein,  D. Stuck,  K. S. Thanthiriwatte,  
 V. Vanovschi,  L. Vogt,  Tao Wang,  A. Warshel,  M. A. Watson,  
 C. F. Williams,  Q. Wu,  X. Xu,  Jun Yang,  W. Zhang,  Yan Zhao

   Please cite Q-Chem as follows:
  "Software for the frontiers of quantum chemistry:
   An overview of developments in the Q-Chem 5 package"
   J. Chem. Phys. 155, 084801 (2021)
   https://doi.org/10.1063/5.0055522 (open access)

 Q-Chem 6.2.0 for Intel X86 EM64T Linux

 Parts of Q-Chem use Armadillo 9.900.5 (Nocturnal Misbehaviour).
 http://arma.sourceforge.net/

 Q-Chem begins on Thu Jan 30 23:39:37 2025  

 Host: 
0

     Scratch files written to /data/brussel/103/vsc10365/activedata/TDDFTAnthocyanidines/qchem2253660//
 May224 |scratch|qcdevops|jenkins|workspace|build_RNUM -1
 Processing $rem in /apps/brussel/RL8/skylake/software/Q-Chem/6.2.0/config/preferences:
 Processing $rem in /user/brussel/103/vsc10365/.qchemrc:
 Symmetry turned off for PCM/SM12/SMD calculation

 Checking the input file for inconsistencies... 	...done.

--------------------------------------------------------------
User input:
--------------------------------------------------------------
$comment
TDDFT calculation of peonidin H structure
nprocs=16
mem=64gb
$end

$molecule
1 1
C   -4.9020569    1.1635715   -0.2109540
C   -4.8564493   -0.0706302    0.4641877
C   -3.6767895   -0.5113771    1.0141670
C   -2.4979383    0.2806875    0.9054871
C   -2.6065333    1.5085412    0.2216771
C   -3.7797718    1.9708088   -0.3405821
C   -1.2509756   -0.0687011    1.4258440
C   -0.1512201    0.7557508    1.2770196
C   -0.2905706    1.9778733    0.5918278
O   -1.5019970    2.2811514    0.1014026
C    0.6976517    3.0030362    0.3516834
C    0.2646269    4.2721536   -0.1021127
C    1.1740643    5.2767488   -0.3438264
C    2.5526306    5.0366952   -0.1530518
C    2.9850339    3.7928273    0.2817359
C    2.0735724    2.7847917    0.5403894
O   -6.0542199    1.6117362   -0.7626213
H   -5.7542946   -0.6718237    0.5453528
O   -3.5593032   -1.6876349    1.6725757
H   -3.8207927    2.9169492   -0.8598341
H   -1.1322655   -0.9985949    1.9684334
O    1.0590617    0.4309077    1.7980987
H   -0.7872141    4.4589949   -0.2456552
O    0.8745094    6.5375866   -0.7598447
O    3.4583341    6.0142331   -0.3901728
H    2.4365871    1.8271911    0.8696641
H   -6.7716685    0.9760272   -0.6220903
H   -4.4094110   -2.1523620    1.6866596
H    1.0055650   -0.4229834    2.2525649
H    2.9962973    6.8126938   -0.6935822
C   -0.5002626    6.8774417   -0.9770510
H   -0.5005862    7.9170261   -1.2933836
H   -1.0742694    6.7724088   -0.0546306
H   -0.9331166    6.2527589   -1.7602456
H    4.0453321    3.6249150    0.4167175
$end

$rem
BASIS  =  def2-ma-TZVP
MEM_STATIC  =  2000
MEM_TOTAL  =  64000
METHOD  =  CAM-B3LYP
SOLVENT_METHOD = pcm
SYMMETRY_IGNORE  =  1
CIS_N_ROOTS = 7
CIS_SINGLETS = true
CIS_TRIPLETS = true
CISTR_PRINT = true
RPA = true
PRINT_ORBITALS = true
SCF_PRINT = 1
SCF_FINAL_PRINT = 2
PRINT_GENERAL_BASIS = true
CISTR_PRINT = true
PRINT_RADII_GYRE = true
MULTIPOLE_ORDER = 5
CIS_AMPL_PRINT = 5
CIS_AMPL_ANAL = true
STATE_ANALYSIS = true
$end

$pcm
Theory   CPCM
Method   SWIG
Solver   Inversion
Radii    Bondi
$end

$solvent
Dielectric         78.39
OpticalDielectric  1.777849
$end


--------------------------------------------------------------
 ----------------------------------------------------------------
             Standard Nuclear Orientation (Angstroms)
    I     Atom           X                Y                Z
 ----------------------------------------------------------------
    1      C      -4.9020569000     1.1635715000    -0.2109540000
    2      C      -4.8564493000    -0.0706302000     0.4641877000
    3      C      -3.6767895000    -0.5113771000     1.0141670000
    4      C      -2.4979383000     0.2806875000     0.9054871000
    5      C      -2.6065333000     1.5085412000     0.2216771000
    6      C      -3.7797718000     1.9708088000    -0.3405821000
    7      C      -1.2509756000    -0.0687011000     1.4258440000
    8      C      -0.1512201000     0.7557508000     1.2770196000
    9      C      -0.2905706000     1.9778733000     0.5918278000
   10      O      -1.5019970000     2.2811514000     0.1014026000
   11      C       0.6976517000     3.0030362000     0.3516834000
   12      C       0.2646269000     4.2721536000    -0.1021127000
   13      C       1.1740643000     5.2767488000    -0.3438264000
   14      C       2.5526306000     5.0366952000    -0.1530518000
   15      C       2.9850339000     3.7928273000     0.2817359000
   16      C       2.0735724000     2.7847917000     0.5403894000
   17      O      -6.0542199000     1.6117362000    -0.7626213000
   18      H      -5.7542946000    -0.6718237000     0.5453528000
   19      O      -3.5593032000    -1.6876349000     1.6725757000
   20      H      -3.8207927000     2.9169492000    -0.8598341000
   21      H      -1.1322655000    -0.9985949000     1.9684334000
   22      O       1.0590617000     0.4309077000     1.7980987000
   23      H      -0.7872141000     4.4589949000    -0.2456552000
   24      O       0.8745094000     6.5375866000    -0.7598447000
   25      O       3.4583341000     6.0142331000    -0.3901728000
   26      H       2.4365871000     1.8271911000     0.8696641000
   27      H      -6.7716685000     0.9760272000    -0.6220903000
   28      H      -4.4094110000    -2.1523620000     1.6866596000
   29      H       1.0055650000    -0.4229834000     2.2525649000
   30      H       2.9962973000     6.8126938000    -0.6935822000
   31      C      -0.5002626000     6.8774417000    -0.9770510000
   32      H      -0.5005862000     7.9170261000    -1.2933836000
   33      H      -1.0742694000     6.7724088000    -0.0546306000
   34      H      -0.9331166000     6.2527589000    -1.7602456000
   35      H       4.0453321000     3.6249150000     0.4167175000
 ----------------------------------------------------------------
 Nuclear Repulsion Energy =        1723.10526802 hartrees
 There are       78 alpha and       78 beta electrons
 Requested basis set is def2-ma-TZVP
 Basis set in general basis input format:
-----------------------------------------------------------------------
$basis
C    0
S    6    1.000000
   1.35753497E+04    2.22458144E-04 
   2.03523337E+03    1.72327383E-03 
   4.63225624E+02    8.92557153E-03 
   1.31200196E+02    3.57279845E-02 
   4.28530159E+01    1.10762599E-01 
   1.55841858E+01    2.42956276E-01 
S    2    1.000000
   6.20671385E+00    4.14402634E-01 
   2.57648965E+00    2.37449687E-01 
S    1    1.000000
   5.76963394E-01    1.00000000E+00 
S    1    1.000000
   2.29728314E-01    1.00000000E+00 
S    1    1.000000
   9.51644400E-02    1.00000000E+00 
S    1    1.000000
   4.84754014E-02    1.00000000E+00 
P    4    1.000000
   3.46972322E+01    5.33336578E-03 
   7.95826228E+00    3.58641091E-02 
   2.37808269E+00    1.42158733E-01 
   8.14332082E-01    3.42704718E-01 
P    1    1.000000
   2.88875473E-01    4.64458224E-01 
P    1    1.000000
   1.00568237E-01    2.49557899E-01 
D    1    1.000000
   1.09700000E+00    1.00000000E+00 
D    1    1.000000
   3.18000000E-01    1.00000000E+00 
F    1    1.000000
   7.61000000E-01    1.00000000E+00 
****
C    0
S    6    1.000000
   1.35753497E+04    2.22458144E-04 
   2.03523337E+03    1.72327383E-03 
   4.63225624E+02    8.92557153E-03 
   1.31200196E+02    3.57279845E-02 
   4.28530159E+01    1.10762599E-01 
   1.55841858E+01    2.42956276E-01 
S    2    1.000000
   6.20671385E+00    4.14402634E-01 
   2.57648965E+00    2.37449687E-01 
S    1    1.000000
   5.76963394E-01    1.00000000E+00 
S    1    1.000000
   2.29728314E-01    1.00000000E+00 
S    1    1.000000
   9.51644400E-02    1.00000000E+00 
S    1    1.000000
   4.84754014E-02    1.00000000E+00 
P    4    1.000000
   3.46972322E+01    5.33336578E-03 
   7.95826228E+00    3.58641091E-02 
   2.37808269E+00    1.42158733E-01 
   8.14332082E-01    3.42704718E-01 
P    1    1.000000
   2.88875473E-01    4.64458224E-01 
P    1    1.000000
   1.00568237E-01    2.49557899E-01 
D    1    1.000000
   1.09700000E+00    1.00000000E+00 
D    1    1.000000
   3.18000000E-01    1.00000000E+00 
F    1    1.000000
   7.61000000E-01    1.00000000E+00 
****
C    0
S    6    1.000000
   1.35753497E+04    2.22458144E-04 
   2.03523337E+03    1.72327383E-03 
   4.63225624E+02    8.92557153E-03 
   1.31200196E+02    3.57279845E-02 
   4.28530159E+01    1.10762599E-01 
   1.55841858E+01    2.42956276E-01 
S    2    1.000000
   6.20671385E+00    4.14402634E-01 
   2.57648965E+00    2.37449687E-01 
S    1    1.000000
   5.76963394E-01    1.00000000E+00 
S    1    1.000000
   2.29728314E-01    1.00000000E+00 
S    1    1.000000
   9.51644400E-02    1.00000000E+00 
S    1    1.000000
   4.84754014E-02    1.00000000E+00 
P    4    1.000000
   3.46972322E+01    5.33336578E-03 
   7.95826228E+00    3.58641091E-02 
   2.37808269E+00    1.42158733E-01 
   8.14332082E-01    3.42704718E-01 
P    1    1.000000
   2.88875473E-01    4.64458224E-01 
P    1    1.000000
   1.00568237E-01    2.49557899E-01 
D    1    1.000000
   1.09700000E+00    1.00000000E+00 
D    1    1.000000
   3.18000000E-01    1.00000000E+00 
F    1    1.000000
   7.61000000E-01    1.00000000E+00 
****
C    0
S    6    1.000000
   1.35753497E+04    2.22458144E-04 
   2.03523337E+03    1.72327383E-03 
   4.63225624E+02    8.92557153E-03 
   1.31200196E+02    3.57279845E-02 
   4.28530159E+01    1.10762599E-01 
   1.55841858E+01    2.42956276E-01 
S    2    1.000000
   6.20671385E+00    4.14402634E-01 
   2.57648965E+00    2.37449687E-01 
S    1    1.000000
   5.76963394E-01    1.00000000E+00 
S    1    1.000000
   2.29728314E-01    1.00000000E+00 
S    1    1.000000
   9.51644400E-02    1.00000000E+00 
S    1    1.000000
   4.84754014E-02    1.00000000E+00 
P    4    1.000000
   3.46972322E+01    5.33336578E-03 
   7.95826228E+00    3.58641091E-02 
   2.37808269E+00    1.42158733E-01 
   8.14332082E-01    3.42704718E-01 
P    1    1.000000
   2.88875473E-01    4.64458224E-01 
P    1    1.000000
   1.00568237E-01    2.49557899E-01 
D    1    1.000000
   1.09700000E+00    1.00000000E+00 
D    1    1.000000
   3.18000000E-01    1.00000000E+00 
F    1    1.000000
   7.61000000E-01    1.00000000E+00 
****
C    0
S    6    1.000000
   1.35753497E+04    2.22458144E-04 
   2.03523337E+03    1.72327383E-03 
   4.63225624E+02    8.92557153E-03 
   1.31200196E+02    3.57279845E-02 
   4.28530159E+01    1.10762599E-01 
   1.55841858E+01    2.42956276E-01 
S    2    1.000000
   6.20671385E+00    4.14402634E-01 
   2.57648965E+00    2.37449687E-01 
S    1    1.000000
   5.76963394E-01    1.00000000E+00 
S    1    1.000000
   2.29728314E-01    1.00000000E+00 
S    1    1.000000
   9.51644400E-02    1.00000000E+00 
S    1    1.000000
   4.84754014E-02    1.00000000E+00 
P    4    1.000000
   3.46972322E+01    5.33336578E-03 
   7.95826228E+00    3.58641091E-02 
   2.37808269E+00    1.42158733E-01 
   8.14332082E-01    3.42704718E-01 
P    1    1.000000
   2.88875473E-01    4.64458224E-01 
P    1    1.000000
   1.00568237E-01    2.49557899E-01 
D    1    1.000000
   1.09700000E+00    1.00000000E+00 
D    1    1.000000
   3.18000000E-01    1.00000000E+00 
F    1    1.000000
   7.61000000E-01    1.00000000E+00 
****
C    0
S    6    1.000000
   1.35753497E+04    2.22458144E-04 
   2.03523337E+03    1.72327383E-03 
   4.63225624E+02    8.92557153E-03 
   1.31200196E+02    3.57279845E-02 
   4.28530159E+01    1.10762599E-01 
   1.55841858E+01    2.42956276E-01 
S    2    1.000000
   6.20671385E+00    4.14402634E-01 
   2.57648965E+00    2.37449687E-01 
S    1    1.000000
   5.76963394E-01    1.00000000E+00 
S    1    1.000000
   2.29728314E-01    1.00000000E+00 
S    1    1.000000
   9.51644400E-02    1.00000000E+00 
S    1    1.000000
   4.84754014E-02    1.00000000E+00 
P    4    1.000000
   3.46972322E+01    5.33336578E-03 
   7.95826228E+00    3.58641091E-02 
   2.37808269E+00    1.42158733E-01 
   8.14332082E-01    3.42704718E-01 
P    1    1.000000
   2.88875473E-01    4.64458224E-01 
P    1    1.000000
   1.00568237E-01    2.49557899E-01 
D    1    1.000000
   1.09700000E+00    1.00000000E+00 
D    1    1.000000
   3.18000000E-01    1.00000000E+00 
F    1    1.000000
   7.61000000E-01    1.00000000E+00 
****
C    0
S    6    1.000000
   1.35753497E+04    2.22458144E-04 
   2.03523337E+03    1.72327383E-03 
   4.63225624E+02    8.92557153E-03 
   1.31200196E+02    3.57279845E-02 
   4.28530159E+01    1.10762599E-01 
   1.55841858E+01    2.42956276E-01 
S    2    1.000000
   6.20671385E+00    4.14402634E-01 
   2.57648965E+00    2.37449687E-01 
S    1    1.000000
   5.76963394E-01    1.00000000E+00 
S    1    1.000000
   2.29728314E-01    1.00000000E+00 
S    1    1.000000
   9.51644400E-02    1.00000000E+00 
S    1    1.000000
   4.84754014E-02    1.00000000E+00 
P    4    1.000000
   3.46972322E+01    5.33336578E-03 
   7.95826228E+00    3.58641091E-02 
   2.37808269E+00    1.42158733E-01 
   8.14332082E-01    3.42704718E-01 
P    1    1.000000
   2.88875473E-01    4.64458224E-01 
P    1    1.000000
   1.00568237E-01    2.49557899E-01 
D    1    1.000000
   1.09700000E+00    1.00000000E+00 
D    1    1.000000
   3.18000000E-01    1.00000000E+00 
F    1    1.000000
   7.61000000E-01    1.00000000E+00 
****
C    0
S    6    1.000000
   1.35753497E+04    2.22458144E-04 
   2.03523337E+03    1.72327383E-03 
   4.63225624E+02    8.92557153E-03 
   1.31200196E+02    3.57279845E-02 
   4.28530159E+01    1.10762599E-01 
   1.55841858E+01    2.42956276E-01 
S    2    1.000000
   6.20671385E+00    4.14402634E-01 
   2.57648965E+00    2.37449687E-01 
S    1    1.000000
   5.76963394E-01    1.00000000E+00 
S    1    1.000000
   2.29728314E-01    1.00000000E+00 
S    1    1.000000
   9.51644400E-02    1.00000000E+00 
S    1    1.000000
   4.84754014E-02    1.00000000E+00 
P    4    1.000000
   3.46972322E+01    5.33336578E-03 
   7.95826228E+00    3.58641091E-02 
   2.37808269E+00    1.42158733E-01 
   8.14332082E-01    3.42704718E-01 
P    1    1.000000
   2.88875473E-01    4.64458224E-01 
P    1    1.000000
   1.00568237E-01    2.49557899E-01 
D    1    1.000000
   1.09700000E+00    1.00000000E+00 
D    1    1.000000
   3.18000000E-01    1.00000000E+00 
F    1    1.000000
   7.61000000E-01    1.00000000E+00 
****
C    0
S    6    1.000000
   1.35753497E+04    2.22458144E-04 
   2.03523337E+03    1.72327383E-03 
   4.63225624E+02    8.92557153E-03 
   1.31200196E+02    3.57279845E-02 
   4.28530159E+01    1.10762599E-01 
   1.55841858E+01    2.42956276E-01 
S    2    1.000000
   6.20671385E+00    4.14402634E-01 
   2.57648965E+00    2.37449687E-01 
S    1    1.000000
   5.76963394E-01    1.00000000E+00 
S    1    1.000000
   2.29728314E-01    1.00000000E+00 
S    1    1.000000
   9.51644400E-02    1.00000000E+00 
S    1    1.000000
   4.84754014E-02    1.00000000E+00 
P    4    1.000000
   3.46972322E+01    5.33336578E-03 
   7.95826228E+00    3.58641091E-02 
   2.37808269E+00    1.42158733E-01 
   8.14332082E-01    3.42704718E-01 
P    1    1.000000
   2.88875473E-01    4.64458224E-01 
P    1    1.000000
   1.00568237E-01    2.49557899E-01 
D    1    1.000000
   1.09700000E+00    1.00000000E+00 
D    1    1.000000
   3.18000000E-01    1.00000000E+00 
F    1    1.000000
   7.61000000E-01    1.00000000E+00 
****
O    0
S    6    1.000000
   2.70323826E+04    2.17263025E-04 
   4.05238714E+03    1.68386622E-03 
   9.22327227E+02    8.73956163E-03 
   2.61240710E+02    3.52399688E-02 
   8.53546414E+01    1.11535191E-01 
   3.10350352E+01    2.55889540E-01 
S    2    1.000000
   1.22608607E+01    3.97687309E-01 
   4.99870760E+00    2.46278494E-01 
S    1    1.000000
   1.17031082E+00    1.00000000E+00 
S    1    1.000000
   4.64747410E-01    1.00000000E+00 
S    1    1.000000
   1.85045364E-01    1.00000000E+00 
S    1    1.000000
   7.02880263E-02    1.00000000E+00 
P    4    1.000000
   6.32749548E+01    6.06851034E-03 
   1.46270494E+01    4.19125758E-02 
   4.45012235E+00    1.61538411E-01 
   1.52757996E+00    3.57069513E-01 
P    1    1.000000
   5.29351179E-01    4.47942075E-01 
P    1    1.000000
   1.74784213E-01    2.44460697E-01 
P    1    1.000000
   5.11127457E-02    1.00000000E+00 
D    1    1.000000
   2.31400000E+00    1.00000000E+00 
D    1    1.000000
   6.45000000E-01    1.00000000E+00 
F    1    1.000000
   1.42800000E+00    1.00000000E+00 
****
C    0
S    6    1.000000
   1.35753497E+04    2.22458144E-04 
   2.03523337E+03    1.72327383E-03 
   4.63225624E+02    8.92557153E-03 
   1.31200196E+02    3.57279845E-02 
   4.28530159E+01    1.10762599E-01 
   1.55841858E+01    2.42956276E-01 
S    2    1.000000
   6.20671385E+00    4.14402634E-01 
   2.57648965E+00    2.37449687E-01 
S    1    1.000000
   5.76963394E-01    1.00000000E+00 
S    1    1.000000
   2.29728314E-01    1.00000000E+00 
S    1    1.000000
   9.51644400E-02    1.00000000E+00 
S    1    1.000000
   4.84754014E-02    1.00000000E+00 
P    4    1.000000
   3.46972322E+01    5.33336578E-03 
   7.95826228E+00    3.58641091E-02 
   2.37808269E+00    1.42158733E-01 
   8.14332082E-01    3.42704718E-01 
P    1    1.000000
   2.88875473E-01    4.64458224E-01 
P    1    1.000000
   1.00568237E-01    2.49557899E-01 
D    1    1.000000
   1.09700000E+00    1.00000000E+00 
D    1    1.000000
   3.18000000E-01    1.00000000E+00 
F    1    1.000000
   7.61000000E-01    1.00000000E+00 
****
C    0
S    6    1.000000
   1.35753497E+04    2.22458144E-04 
   2.03523337E+03    1.72327383E-03 
   4.63225624E+02    8.92557153E-03 
   1.31200196E+02    3.57279845E-02 
   4.28530159E+01    1.10762599E-01 
   1.55841858E+01    2.42956276E-01 
S    2    1.000000
   6.20671385E+00    4.14402634E-01 
   2.57648965E+00    2.37449687E-01 
S    1    1.000000
   5.76963394E-01    1.00000000E+00 
S    1    1.000000
   2.29728314E-01    1.00000000E+00 
S    1    1.000000
   9.51644400E-02    1.00000000E+00 
S    1    1.000000
   4.84754014E-02    1.00000000E+00 
P    4    1.000000
   3.46972322E+01    5.33336578E-03 
   7.95826228E+00    3.58641091E-02 
   2.37808269E+00    1.42158733E-01 
   8.14332082E-01    3.42704718E-01 
P    1    1.000000
   2.88875473E-01    4.64458224E-01 
P    1    1.000000
   1.00568237E-01    2.49557899E-01 
D    1    1.000000
   1.09700000E+00    1.00000000E+00 
D    1    1.000000
   3.18000000E-01    1.00000000E+00 
F    1    1.000000
   7.61000000E-01    1.00000000E+00 
****
C    0
S    6    1.000000
   1.35753497E+04    2.22458144E-04 
   2.03523337E+03    1.72327383E-03 
   4.63225624E+02    8.92557153E-03 
   1.31200196E+02    3.57279845E-02 
   4.28530159E+01    1.10762599E-01 
   1.55841858E+01    2.42956276E-01 
S    2    1.000000
   6.20671385E+00    4.14402634E-01 
   2.57648965E+00    2.37449687E-01 
S    1    1.000000
   5.76963394E-01    1.00000000E+00 
S    1    1.000000
   2.29728314E-01    1.00000000E+00 
S    1    1.000000
   9.51644400E-02    1.00000000E+00 
S    1    1.000000
   4.84754014E-02    1.00000000E+00 
P    4    1.000000
   3.46972322E+01    5.33336578E-03 
   7.95826228E+00    3.58641091E-02 
   2.37808269E+00    1.42158733E-01 
   8.14332082E-01    3.42704718E-01 
P    1    1.000000
   2.88875473E-01    4.64458224E-01 
P    1    1.000000
   1.00568237E-01    2.49557899E-01 
D    1    1.000000
   1.09700000E+00    1.00000000E+00 
D    1    1.000000
   3.18000000E-01    1.00000000E+00 
F    1    1.000000
   7.61000000E-01    1.00000000E+00 
****
C    0
S    6    1.000000
   1.35753497E+04    2.22458144E-04 
   2.03523337E+03    1.72327383E-03 
   4.63225624E+02    8.92557153E-03 
   1.31200196E+02    3.57279845E-02 
   4.28530159E+01    1.10762599E-01 
   1.55841858E+01    2.42956276E-01 
S    2    1.000000
   6.20671385E+00    4.14402634E-01 
   2.57648965E+00    2.37449687E-01 
S    1    1.000000
   5.76963394E-01    1.00000000E+00 
S    1    1.000000
   2.29728314E-01    1.00000000E+00 
S    1    1.000000
   9.51644400E-02    1.00000000E+00 
S    1    1.000000
   4.84754014E-02    1.00000000E+00 
P    4    1.000000
   3.46972322E+01    5.33336578E-03 
   7.95826228E+00    3.58641091E-02 
   2.37808269E+00    1.42158733E-01 
   8.14332082E-01    3.42704718E-01 
P    1    1.000000
   2.88875473E-01    4.64458224E-01 
P    1    1.000000
   1.00568237E-01    2.49557899E-01 
D    1    1.000000
   1.09700000E+00    1.00000000E+00 
D    1    1.000000
   3.18000000E-01    1.00000000E+00 
F    1    1.000000
   7.61000000E-01    1.00000000E+00 
****
C    0
S    6    1.000000
   1.35753497E+04    2.22458144E-04 
   2.03523337E+03    1.72327383E-03 
   4.63225624E+02    8.92557153E-03 
   1.31200196E+02    3.57279845E-02 
   4.28530159E+01    1.10762599E-01 
   1.55841858E+01    2.42956276E-01 
S    2    1.000000
   6.20671385E+00    4.14402634E-01 
   2.57648965E+00    2.37449687E-01 
S    1    1.000000
   5.76963394E-01    1.00000000E+00 
S    1    1.000000
   2.29728314E-01    1.00000000E+00 
S    1    1.000000
   9.51644400E-02    1.00000000E+00 
S    1    1.000000
   4.84754014E-02    1.00000000E+00 
P    4    1.000000
   3.46972322E+01    5.33336578E-03 
   7.95826228E+00    3.58641091E-02 
   2.37808269E+00    1.42158733E-01 
   8.14332082E-01    3.42704718E-01 
P    1    1.000000
   2.88875473E-01    4.64458224E-01 
P    1    1.000000
   1.00568237E-01    2.49557899E-01 
D    1    1.000000
   1.09700000E+00    1.00000000E+00 
D    1    1.000000
   3.18000000E-01    1.00000000E+00 
F    1    1.000000
   7.61000000E-01    1.00000000E+00 
****
C    0
S    6    1.000000
   1.35753497E+04    2.22458144E-04 
   2.03523337E+03    1.72327383E-03 
   4.63225624E+02    8.92557153E-03 
   1.31200196E+02    3.57279845E-02 
   4.28530159E+01    1.10762599E-01 
   1.55841858E+01    2.42956276E-01 
S    2    1.000000
   6.20671385E+00    4.14402634E-01 
   2.57648965E+00    2.37449687E-01 
S    1    1.000000
   5.76963394E-01    1.00000000E+00 
S    1    1.000000
   2.29728314E-01    1.00000000E+00 
S    1    1.000000
   9.51644400E-02    1.00000000E+00 
S    1    1.000000
   4.84754014E-02    1.00000000E+00 
P    4    1.000000
   3.46972322E+01    5.33336578E-03 
   7.95826228E+00    3.58641091E-02 
   2.37808269E+00    1.42158733E-01 
   8.14332082E-01    3.42704718E-01 
P    1    1.000000
   2.88875473E-01    4.64458224E-01 
P    1    1.000000
   1.00568237E-01    2.49557899E-01 
D    1    1.000000
   1.09700000E+00    1.00000000E+00 
D    1    1.000000
   3.18000000E-01    1.00000000E+00 
F    1    1.000000
   7.61000000E-01    1.00000000E+00 
****
O    0
S    6    1.000000
   2.70323826E+04    2.17263025E-04 
   4.05238714E+03    1.68386622E-03 
   9.22327227E+02    8.73956163E-03 
   2.61240710E+02    3.52399688E-02 
   8.53546414E+01    1.11535191E-01 
   3.10350352E+01    2.55889540E-01 
S    2    1.000000
   1.22608607E+01    3.97687309E-01 
   4.99870760E+00    2.46278494E-01 
S    1    1.000000
   1.17031082E+00    1.00000000E+00 
S    1    1.000000
   4.64747410E-01    1.00000000E+00 
S    1    1.000000
   1.85045364E-01    1.00000000E+00 
S    1    1.000000
   7.02880263E-02    1.00000000E+00 
P    4    1.000000
   6.32749548E+01    6.06851034E-03 
   1.46270494E+01    4.19125758E-02 
   4.45012235E+00    1.61538411E-01 
   1.52757996E+00    3.57069513E-01 
P    1    1.000000
   5.29351179E-01    4.47942075E-01 
P    1    1.000000
   1.74784213E-01    2.44460697E-01 
P    1    1.000000
   5.11127457E-02    1.00000000E+00 
D    1    1.000000
   2.31400000E+00    1.00000000E+00 
D    1    1.000000
   6.45000000E-01    1.00000000E+00 
F    1    1.000000
   1.42800000E+00    1.00000000E+00 
****
H    0
S    3    1.000000
   3.40613410E+01    6.02519780E-03 
   5.12357460E+00    4.50210940E-02 
   1.16466260E+00    2.01897260E-01 
S    1    1.000000
   3.27230410E-01    1.00000000E+00 
S    1    1.000000
   1.03072410E-01    1.00000000E+00 
P    1    1.000000
   8.00000000E-01    1.00000000E+00 
****
O    0
S    6    1.000000
   2.70323826E+04    2.17263025E-04 
   4.05238714E+03    1.68386622E-03 
   9.22327227E+02    8.73956163E-03 
   2.61240710E+02    3.52399688E-02 
   8.53546414E+01    1.11535191E-01 
   3.10350352E+01    2.55889540E-01 
S    2    1.000000
   1.22608607E+01    3.97687309E-01 
   4.99870760E+00    2.46278494E-01 
S    1    1.000000
   1.17031082E+00    1.00000000E+00 
S    1    1.000000
   4.64747410E-01    1.00000000E+00 
S    1    1.000000
   1.85045364E-01    1.00000000E+00 
S    1    1.000000
   7.02880263E-02    1.00000000E+00 
P    4    1.000000
   6.32749548E+01    6.06851034E-03 
   1.46270494E+01    4.19125758E-02 
   4.45012235E+00    1.61538411E-01 
   1.52757996E+00    3.57069513E-01 
P    1    1.000000
   5.29351179E-01    4.47942075E-01 
P    1    1.000000
   1.74784213E-01    2.44460697E-01 
P    1    1.000000
   5.11127457E-02    1.00000000E+00 
D    1    1.000000
   2.31400000E+00    1.00000000E+00 
D    1    1.000000
   6.45000000E-01    1.00000000E+00 
F    1    1.000000
   1.42800000E+00    1.00000000E+00 
****
H    0
S    3    1.000000
   3.40613410E+01    6.02519780E-03 
   5.12357460E+00    4.50210940E-02 
   1.16466260E+00    2.01897260E-01 
S    1    1.000000
   3.27230410E-01    1.00000000E+00 
S    1    1.000000
   1.03072410E-01    1.00000000E+00 
P    1    1.000000
   8.00000000E-01    1.00000000E+00 
****
H    0
S    3    1.000000
   3.40613410E+01    6.02519780E-03 
   5.12357460E+00    4.50210940E-02 
   1.16466260E+00    2.01897260E-01 
S    1    1.000000
   3.27230410E-01    1.00000000E+00 
S    1    1.000000
   1.03072410E-01    1.00000000E+00 
P    1    1.000000
   8.00000000E-01    1.00000000E+00 
****
O    0
S    6    1.000000
   2.70323826E+04    2.17263025E-04 
   4.05238714E+03    1.68386622E-03 
   9.22327227E+02    8.73956163E-03 
   2.61240710E+02    3.52399688E-02 
   8.53546414E+01    1.11535191E-01 
   3.10350352E+01    2.55889540E-01 
S    2    1.000000
   1.22608607E+01    3.97687309E-01 
   4.99870760E+00    2.46278494E-01 
S    1    1.000000
   1.17031082E+00    1.00000000E+00 
S    1    1.000000
   4.64747410E-01    1.00000000E+00 
S    1    1.000000
   1.85045364E-01    1.00000000E+00 
S    1    1.000000
   7.02880263E-02    1.00000000E+00 
P    4    1.000000
   6.32749548E+01    6.06851034E-03 
   1.46270494E+01    4.19125758E-02 
   4.45012235E+00    1.61538411E-01 
   1.52757996E+00    3.57069513E-01 
P    1    1.000000
   5.29351179E-01    4.47942075E-01 
P    1    1.000000
   1.74784213E-01    2.44460697E-01 
P    1    1.000000
   5.11127457E-02    1.00000000E+00 
D    1    1.000000
   2.31400000E+00    1.00000000E+00 
D    1    1.000000
   6.45000000E-01    1.00000000E+00 
F    1    1.000000
   1.42800000E+00    1.00000000E+00 
****
H    0
S    3    1.000000
   3.40613410E+01    6.02519780E-03 
   5.12357460E+00    4.50210940E-02 
   1.16466260E+00    2.01897260E-01 
S    1    1.000000
   3.27230410E-01    1.00000000E+00 
S    1    1.000000
   1.03072410E-01    1.00000000E+00 
P    1    1.000000
   8.00000000E-01    1.00000000E+00 
****
O    0
S    6    1.000000
   2.70323826E+04    2.17263025E-04 
   4.05238714E+03    1.68386622E-03 
   9.22327227E+02    8.73956163E-03 
   2.61240710E+02    3.52399688E-02 
   8.53546414E+01    1.11535191E-01 
   3.10350352E+01    2.55889540E-01 
S    2    1.000000
   1.22608607E+01    3.97687309E-01 
   4.99870760E+00    2.46278494E-01 
S    1    1.000000
   1.17031082E+00    1.00000000E+00 
S    1    1.000000
   4.64747410E-01    1.00000000E+00 
S    1    1.000000
   1.85045364E-01    1.00000000E+00 
S    1    1.000000
   7.02880263E-02    1.00000000E+00 
P    4    1.000000
   6.32749548E+01    6.06851034E-03 
   1.46270494E+01    4.19125758E-02 
   4.45012235E+00    1.61538411E-01 
   1.52757996E+00    3.57069513E-01 
P    1    1.000000
   5.29351179E-01    4.47942075E-01 
P    1    1.000000
   1.74784213E-01    2.44460697E-01 
P    1    1.000000
   5.11127457E-02    1.00000000E+00 
D    1    1.000000
   2.31400000E+00    1.00000000E+00 
D    1    1.000000
   6.45000000E-01    1.00000000E+00 
F    1    1.000000
   1.42800000E+00    1.00000000E+00 
****
O    0
S    6    1.000000
   2.70323826E+04    2.17263025E-04 
   4.05238714E+03    1.68386622E-03 
   9.22327227E+02    8.73956163E-03 
   2.61240710E+02    3.52399688E-02 
   8.53546414E+01    1.11535191E-01 
   3.10350352E+01    2.55889540E-01 
S    2    1.000000
   1.22608607E+01    3.97687309E-01 
   4.99870760E+00    2.46278494E-01 
S    1    1.000000
   1.17031082E+00    1.00000000E+00 
S    1    1.000000
   4.64747410E-01    1.00000000E+00 
S    1    1.000000
   1.85045364E-01    1.00000000E+00 
S    1    1.000000
   7.02880263E-02    1.00000000E+00 
P    4    1.000000
   6.32749548E+01    6.06851034E-03 
   1.46270494E+01    4.19125758E-02 
   4.45012235E+00    1.61538411E-01 
   1.52757996E+00    3.57069513E-01 
P    1    1.000000
   5.29351179E-01    4.47942075E-01 
P    1    1.000000
   1.74784213E-01    2.44460697E-01 
P    1    1.000000
   5.11127457E-02    1.00000000E+00 
D    1    1.000000
   2.31400000E+00    1.00000000E+00 
D    1    1.000000
   6.45000000E-01    1.00000000E+00 
F    1    1.000000
   1.42800000E+00    1.00000000E+00 
****
H    0
S    3    1.000000
   3.40613410E+01    6.02519780E-03 
   5.12357460E+00    4.50210940E-02 
   1.16466260E+00    2.01897260E-01 
S    1    1.000000
   3.27230410E-01    1.00000000E+00 
S    1    1.000000
   1.03072410E-01    1.00000000E+00 
P    1    1.000000
   8.00000000E-01    1.00000000E+00 
****
H    0
S    3    1.000000
   3.40613410E+01    6.02519780E-03 
   5.12357460E+00    4.50210940E-02 
   1.16466260E+00    2.01897260E-01 
S    1    1.000000
   3.27230410E-01    1.00000000E+00 
S    1    1.000000
   1.03072410E-01    1.00000000E+00 
P    1    1.000000
   8.00000000E-01    1.00000000E+00 
****
H    0
S    3    1.000000
   3.40613410E+01    6.02519780E-03 
   5.12357460E+00    4.50210940E-02 
   1.16466260E+00    2.01897260E-01 
S    1    1.000000
   3.27230410E-01    1.00000000E+00 
S    1    1.000000
   1.03072410E-01    1.00000000E+00 
P    1    1.000000
   8.00000000E-01    1.00000000E+00 
****
H    0
S    3    1.000000
   3.40613410E+01    6.02519780E-03 
   5.12357460E+00    4.50210940E-02 
   1.16466260E+00    2.01897260E-01 
S    1    1.000000
   3.27230410E-01    1.00000000E+00 
S    1    1.000000
   1.03072410E-01    1.00000000E+00 
P    1    1.000000
   8.00000000E-01    1.00000000E+00 
****
H    0
S    3    1.000000
   3.40613410E+01    6.02519780E-03 
   5.12357460E+00    4.50210940E-02 
   1.16466260E+00    2.01897260E-01 
S    1    1.000000
   3.27230410E-01    1.00000000E+00 
S    1    1.000000
   1.03072410E-01    1.00000000E+00 
P    1    1.000000
   8.00000000E-01    1.00000000E+00 
****
C    0
S    6    1.000000
   1.35753497E+04    2.22458144E-04 
   2.03523337E+03    1.72327383E-03 
   4.63225624E+02    8.92557153E-03 
   1.31200196E+02    3.57279845E-02 
   4.28530159E+01    1.10762599E-01 
   1.55841858E+01    2.42956276E-01 
S    2    1.000000
   6.20671385E+00    4.14402634E-01 
   2.57648965E+00    2.37449687E-01 
S    1    1.000000
   5.76963394E-01    1.00000000E+00 
S    1    1.000000
   2.29728314E-01    1.00000000E+00 
S    1    1.000000
   9.51644400E-02    1.00000000E+00 
S    1    1.000000
   4.84754014E-02    1.00000000E+00 
P    4    1.000000
   3.46972322E+01    5.33336578E-03 
   7.95826228E+00    3.58641091E-02 
   2.37808269E+00    1.42158733E-01 
   8.14332082E-01    3.42704718E-01 
P    1    1.000000
   2.88875473E-01    4.64458224E-01 
P    1    1.000000
   1.00568237E-01    2.49557899E-01 
D    1    1.000000
   1.09700000E+00    1.00000000E+00 
D    1    1.000000
   3.18000000E-01    1.00000000E+00 
F    1    1.000000
   7.61000000E-01    1.00000000E+00 
****
H    0
S    3    1.000000
   3.40613410E+01    6.02519780E-03 
   5.12357460E+00    4.50210940E-02 
   1.16466260E+00    2.01897260E-01 
S    1    1.000000
   3.27230410E-01    1.00000000E+00 
S    1    1.000000
   1.03072410E-01    1.00000000E+00 
P    1    1.000000
   8.00000000E-01    1.00000000E+00 
****
H    0
S    3    1.000000
   3.40613410E+01    6.02519780E-03 
   5.12357460E+00    4.50210940E-02 
   1.16466260E+00    2.01897260E-01 
S    1    1.000000
   3.27230410E-01    1.00000000E+00 
S    1    1.000000
   1.03072410E-01    1.00000000E+00 
P    1    1.000000
   8.00000000E-01    1.00000000E+00 
****
H    0
S    3    1.000000
   3.40613410E+01    6.02519780E-03 
   5.12357460E+00    4.50210940E-02 
   1.16466260E+00    2.01897260E-01 
S    1    1.000000
   3.27230410E-01    1.00000000E+00 
S    1    1.000000
   1.03072410E-01    1.00000000E+00 
P    1    1.000000
   8.00000000E-01    1.00000000E+00 
****
H    0
S    3    1.000000
   3.40613410E+01    6.02519780E-03 
   5.12357460E+00    4.50210940E-02 
   1.16466260E+00    2.01897260E-01 
S    1    1.000000
   3.27230410E-01    1.00000000E+00 
S    1    1.000000
   1.03072410E-01    1.00000000E+00 
P    1    1.000000
   8.00000000E-01    1.00000000E+00 
****
$end
-----------------------------------------------------------------------
 There are 322 shells and 800 basis functions

 Total QAlloc Memory Limit  64000 MB
 Mega-Array Size      1956 MB
 MEM_STATIC part      2000 MB

 User-specified dielectric constants (eps_0 = 78.39, eps_inf = 1.78)
 Using C-PCM dielectric factor f(eps) = (eps-1)/eps = 0.987243
 Static dielectric constant eps = 78.39
 Discretize the solute cavity surface with Lebedev spheres
	Using 110 Lebedev grid points for each H atom
	Using 194 Lebedev grid points for other atoms
	Atomic van der Waals radii (Bondi set) will be scaled by 1.20
 Using smooth SwiG surface discretization
 Remove points where switching function is < 1.0e-08
 Keep 2317 surface tesserae and discard 3381 interior tesserae
 Molecular Surface Area = 318.400 Angst**2

 A cutoff of  1.0D-12 yielded  36738 shell pairs
 There are    213150 function pairs (    269739 Cartesian)
 Smallest overlap matrix eigenvalue = 4.05E-06

 Scale SEOQF with 1.000000e-02/1.000000e-02/1.000000e-01

 Standard Electronic Orientation quadrupole field applied
 Nucleus-field energy     =     0.0000000052 hartrees
 Guess from superposition of atomic densities
 Warning:  Energy on first SCF cycle will be non-variational
 SAD guess density has 157.000000 electrons

 -----------------------------------------------------------------------
  General SCF calculation program by
  Eric Jon Sundstrom, Paul Horn, Yuezhi Mao, Dmitri Zuev, Alec White,
  David Stuck, Shaama M.S., Shane Yost, Joonho Lee, David Small,
  Daniel Levine, Susi Lehtola, Hugh Burton, Evgeny Epifanovsky,
  Bang C. Huynh
 -----------------------------------------------------------------------
 Exchange:     0.1900 Hartree-Fock + 0.3500 B88 + 0.4600 muB88 + LR-HF
 Correlation:  0.1900 VWN5 + 0.8100 LYP
 Using SG-1 standard quadrature grid
 using 16 threads for integral computing
 -------------------------------------------------------
 OpenMP Integral computing Module                
 Release: version 1.0, May 2013, Q-Chem Inc. Pittsburgh 
 -------------------------------------------------------
 C-PCM solvent model [f = (eps-1)/eps], solve by matrix inversion
 DFT Correlation          Energy =  -6.37539425359214
 DFT Exchange             Energy = -96.97568061172018
 HF Exchange              Energy = -40.06352717332615
 One-Electron             Energy = -4866.48306180633972
 SCRF wf-dependent energy Energy =   0.00000000000000
 Total Coulomb            Energy = 2211.23921588500207
 Nuclear repulsion Energy = 1723.10526802239428
 A restricted SCF calculation will be
 performed using DIIS
 SCF converges when DIIS error is below 1.0e-08
 DFT Correlation          Energy =  -6.37539425359214
 DFT Exchange             Energy = -96.97568061172018
 HF Exchange              Energy = -40.06352717332615
 One-Electron             Energy = -4866.48306180633972
 SCRF wf-dependent energy Energy =   0.00000000000000
 Total Coulomb            Energy = 2211.23921588500207
 ---------------------------------------
  Cycle       Energy         DIIS error
 ---------------------------------------
 DFT Correlation          Energy =  -6.42079523081586
 DFT Exchange             Energy = -98.75471825397200
 HF Exchange              Energy = -38.43235899576746
 One-Electron             Energy = -4848.33928008558723
 SCRF wf-dependent energy Energy = -17.96779682023794
 Total Coulomb            Energy = 2218.39608587433941
 Nuclear repulsion Energy = 1723.10526802239428
    1   -1075.5531799376      2.07e-02  
 DFT Correlation          Energy =  -6.37481828315392
 DFT Exchange             Energy = -97.42791709464899
 HF Exchange              Energy = -38.07466435692325
 One-Electron             Energy = -4837.93770294236128
 SCRF wf-dependent energy Energy = -16.98006252949835
 Total Coulomb            Energy = 2205.26722909114005
 Nuclear repulsion Energy = 1723.10526802239428
    2   -1068.4135954896      1.92e-03  
 DFT Correlation          Energy =  -6.39560217100616
 DFT Exchange             Energy = -98.07823759585476
 HF Exchange              Energy = -38.26814509625215
 One-Electron             Energy = -4841.41578610765009
 SCRF wf-dependent energy Energy = -17.90471031812899
 Total Coulomb            Energy = 2210.30881010776284
 Nuclear repulsion Energy = 1723.10526802239428
    3   -1068.4226680931      2.01e-03  
 DFT Correlation          Energy =  -6.39611434866525
 DFT Exchange             Energy = -98.06843233736184
 HF Exchange              Energy = -38.26499116532570
 One-Electron             Energy = -4842.58634596310912
 SCRF wf-dependent energy Energy = -17.56845350291724
 Total Coulomb            Energy = 2211.12629853104227
 Nuclear repulsion Energy = 1723.10526802239428
    4   -1068.6484031587      2.82e-04  
 DFT Correlation          Energy =  -6.39595105068631
 DFT Exchange             Energy = -98.07086305994463
 HF Exchange              Energy = -38.26658809533713
 One-Electron             Energy = -4842.34175610634338
 SCRF wf-dependent energy Energy = -17.64473030566160
 Total Coulomb            Energy = 2210.96109480560381
 Nuclear repulsion Energy = 1723.10526802239428
    5   -1068.6527707639      1.09e-04  
 DFT Correlation          Energy =  -6.39571948461098
 DFT Exchange             Energy = -98.06569772645554
 HF Exchange              Energy = -38.26562359312045
 One-Electron             Energy = -4842.24115948887993
 SCRF wf-dependent energy Energy = -17.64818591435346
 Total Coulomb            Energy = 2210.85751941750323
 Nuclear repulsion Energy = 1723.10526802239428
    6   -1068.6535257900      3.33e-05  
 DFT Correlation          Energy =  -6.39577132135060
 DFT Exchange             Energy = -98.06640962407080
 HF Exchange              Energy = -38.26589393826331
 One-Electron             Energy = -4842.26554431954446
 SCRF wf-dependent energy Energy = -17.64688267642123
 Total Coulomb            Energy = 2210.88162801739281
 Nuclear repulsion Energy = 1723.10526802239428
    7   -1068.6535987675      9.13e-06  
 DFT Correlation          Energy =  -6.39579283015473
 DFT Exchange             Energy = -98.06710035641066
 HF Exchange              Energy = -38.26611574517560
 One-Electron             Energy = -4842.27888848065777
 SCRF wf-dependent energy Energy = -17.64487437157823
 Total Coulomb            Energy = 2210.89389667733803
 Nuclear repulsion Energy = 1723.10526802239428
    8   -1068.6536058399      3.37e-06  
 DFT Correlation          Energy =  -6.39578329828781
 DFT Exchange             Energy = -98.06679604137022
 HF Exchange              Energy = -38.26606044389548
 One-Electron             Energy = -4842.27271500620918
 SCRF wf-dependent energy Energy = -17.64585372011834
 Total Coulomb            Energy = 2210.88833306868764
 Nuclear repulsion Energy = 1723.10526802239428
    9   -1068.6536070842      1.37e-06  
 DFT Correlation          Energy =  -6.39578300809093
 DFT Exchange             Energy = -98.06683644085750
 HF Exchange              Energy = -38.26607984776066
 One-Electron             Energy = -4842.27228882875625
 SCRF wf-dependent energy Energy = -17.64600848187592
 Total Coulomb            Energy = 2210.88812111015795
 Nuclear repulsion Energy = 1723.10526802239428
   10   -1068.6536074188      5.07e-07  
 DFT Correlation          Energy =  -6.39578371892022
 DFT Exchange             Energy = -98.06683919005704
 HF Exchange              Energy = -38.26608234741184
 One-Electron             Energy = -4842.27258290311420
 SCRF wf-dependent energy Energy = -17.64600766262538
 Total Coulomb            Energy = 2210.88842030761180
 Nuclear repulsion Energy = 1723.10526802239428
   11   -1068.6536074748      2.78e-07  
 DFT Correlation          Energy =  -6.39578364778882
 DFT Exchange             Energy = -98.06684190308292
 HF Exchange              Energy = -38.26608336328216
 One-Electron             Energy = -4842.27250752712007
 SCRF wf-dependent energy Energy = -17.64602528158230
 Total Coulomb            Energy = 2210.88836620548591
 Nuclear repulsion Energy = 1723.10526802239428
   12   -1068.6536074921      7.44e-08  
 DFT Correlation          Energy =  -6.39578352836496
 DFT Exchange             Energy = -98.06683776009109
 HF Exchange              Energy = -38.26608215684772
 One-Electron             Energy = -4842.27247429951149
 SCRF wf-dependent energy Energy = -17.64602248233928
 Total Coulomb            Energy = 2210.88832470901298
 Nuclear repulsion Energy = 1723.10526802239428
   13   -1068.6536074950      5.41e-08  
 DFT Correlation          Energy =  -6.39578357889926
 DFT Exchange             Energy = -98.06683939270035
 HF Exchange              Energy = -38.26608248620488
 One-Electron             Energy = -4842.27251755210364
 SCRF wf-dependent energy Energy = -17.64601108617808
 Total Coulomb            Energy = 2210.88835857804452
 Nuclear repulsion Energy = 1723.10526802239428
   14   -1068.6536074957      1.73e-08  
   15   -1068.6536074956      7.26e-09  Convergence criterion met
 ---------------------------------------
 DFT Correlation          Energy =  -6.39578357889926
 DFT Exchange             Energy = -98.06683939270035
 HF Exchange              Energy = -38.26608248620488
 One-Electron             Energy = -4842.27251755210364
 SCRF wf-dependent energy Energy = -17.64601108617808
 Total Coulomb            Energy = 2210.88835857804452
 Final Alpha MO Eigenvalues
            1           2           3           4           5           6
    1 -19.3228196 -19.2579973 -19.2571641 -19.2563622 -19.2508711 -19.2494025
            7           8           9          10          11          12
    1 -10.3886341 -10.3653294 -10.3568949 -10.3560936 -10.3548124 -10.3383945
           13          14          15          16          17          18
    1 -10.3291490 -10.3146884 -10.2998000 -10.2983134 -10.2888406 -10.2729897
           19          20          21          22          23          24
    1 -10.2725394 -10.2718595 -10.2664041 -10.2624167  -1.2507561  -1.1799796
           25          26          27          28          29          30
    1  -1.1757509  -1.1751985  -1.1714480  -1.1512473  -0.9887657  -0.9688340
           31          32          33          34          35          36
    1  -0.9400632  -0.9044551  -0.8624845  -0.8557501  -0.8474045  -0.8013191
           37          38          39          40          41          42
    1  -0.7869695  -0.7766363  -0.7335052  -0.7203756  -0.7083142  -0.6936637
           43          44          45          46          47          48
    1  -0.6612496  -0.6513734  -0.6432991  -0.6308717  -0.6178333  -0.6014856
           49          50          51          52          53          54
    1  -0.5949807  -0.5828031  -0.5774959  -0.5645288  -0.5568058  -0.5461770
           55          56          57          58          59          60
    1  -0.5330422  -0.5278400  -0.5243753  -0.5124721  -0.5072524  -0.5063612
           61          62          63          64          65          66
    1  -0.5044082  -0.4992890  -0.4933958  -0.4889280  -0.4764544  -0.4670140
           67          68          69          70          71          72
    1  -0.4499823  -0.4474772  -0.4460077  -0.4272674  -0.4230869  -0.4219998
           73          74          75          76          77          78
    1  -0.4089095  -0.3770552  -0.3399957  -0.3182405  -0.3033640  -0.2747170
           79          80          81          82          83          84
    1  -0.0891729  -0.0096048   0.0197640   0.0246034   0.0286995   0.0316504
           85          86          87          88          89          90
    1   0.0355535   0.0421891   0.0457106   0.0478284   0.0588378   0.0647816
           91          92          93          94          95          96
    1   0.0717121   0.0731444   0.0819029   0.0871301   0.0890007   0.0904132
           97          98          99         100         101         102
    1   0.0986788   0.1036949   0.1059438   0.1083385   0.1173367   0.1187615
          103         104         105         106         107         108
    1   0.1233686   0.1289468   0.1294996   0.1364664   0.1398428   0.1474751
          109         110         111         112         113         114
    1   0.1485258   0.1563039   0.1623111   0.1709174   0.1751634   0.1782398
          115         116         117         118         119         120
    1   0.1807673   0.1845234   0.1897119   0.1924151   0.1997714   0.2060834
          121         122         123         124         125         126
    1   0.2070527   0.2120593   0.2202685   0.2212957   0.2266974   0.2307862
          127         128         129         130         131         132
    1   0.2326740   0.2354516   0.2387376   0.2418232   0.2475756   0.2536680
          133         134         135         136         137         138
    1   0.2600721   0.2686924   0.2713382   0.2750109   0.2767123   0.2826856
          139         140         141         142         143         144
    1   0.2856510   0.2922037   0.2966169   0.3007576   0.3024569   0.3079152
          145         146         147         148         149         150
    1   0.3118250   0.3133887   0.3154410   0.3200637   0.3230954   0.3291751
          151         152         153         154         155         156
    1   0.3325153   0.3339206   0.3403479   0.3448802   0.3500633   0.3530665
          157         158         159         160         161         162
    1   0.3558779   0.3591709   0.3620920   0.3685082   0.3756313   0.3794598
          163         164         165         166         167         168
    1   0.3835603   0.3930107   0.3947093   0.3961685   0.4018506   0.4039820
          169         170         171         172         173         174
    1   0.4102494   0.4179244   0.4198328   0.4229598   0.4312279   0.4342373
          175         176         177         178         179         180
    1   0.4381756   0.4413531   0.4458934   0.4477586   0.4579604   0.4604181
          181         182         183         184         185         186
    1   0.4668259   0.4677752   0.4684869   0.4743159   0.4760926   0.4794834
          187         188         189         190         191         192
    1   0.4870556   0.4876550   0.4905665   0.4997424   0.5083619   0.5122441
          193         194         195         196         197         198
    1   0.5168249   0.5200562   0.5222351   0.5245420   0.5274111   0.5337875
          199         200         201         202         203         204
    1   0.5395307   0.5453863   0.5547888   0.5586611   0.5602352   0.5658280
          205         206         207         208         209         210
    1   0.5738090   0.5780497   0.5819252   0.5858057   0.5969451   0.6040983
          211         212         213         214         215         216
    1   0.6090361   0.6124340   0.6174982   0.6267465   0.6277127   0.6339968
          217         218         219         220         221         222
    1   0.6350093   0.6392741   0.6459063   0.6504585   0.6554310   0.6655813
          223         224         225         226         227         228
    1   0.6714900   0.6732913   0.6777571   0.6802025   0.6820728   0.6898133
          229         230         231         232         233         234
    1   0.6988941   0.7082106   0.7121152   0.7151732   0.7254167   0.7302629
          235         236         237         238         239         240
    1   0.7369587   0.7409235   0.7466418   0.7541421   0.7588398   0.7613480
          241         242         243         244         245         246
    1   0.7702513   0.7767821   0.7797187   0.7817358   0.7902501   0.7922187
          247         248         249         250         251         252
    1   0.7948165   0.8003030   0.8049669   0.8121292   0.8166631   0.8208636
          253         254         255         256         257         258
    1   0.8246892   0.8310560   0.8339085   0.8389297   0.8442244   0.8534793
          259         260         261         262         263         264
    1   0.8669853   0.8775031   0.8802992   0.8883444   0.8967352   0.9012925
          265         266         267         268         269         270
    1   0.9084554   0.9108486   0.9209880   0.9308988   0.9389223   0.9439327
          271         272         273         274         275         276
    1   0.9554435   0.9675823   0.9785524   0.9904406   0.9932586   1.0129853
          277         278         279         280         281         282
    1   1.0237892   1.0356331   1.0419101   1.0470364   1.0601968   1.0652558
          283         284         285         286         287         288
    1   1.0663284   1.0746530   1.0813853   1.0910615   1.0979022   1.1031260
          289         290         291         292         293         294
    1   1.1124123   1.1173781   1.1249777   1.1342312   1.1374237   1.1490028
          295         296         297         298         299         300
    1   1.1547180   1.1719191   1.1741114   1.1814042   1.1862729   1.1919201
          301         302         303         304         305         306
    1   1.2033103   1.2106994   1.2271574   1.2280401   1.2352708   1.2417985
          307         308         309         310         311         312
    1   1.2576270   1.2665867   1.2723128   1.2818523   1.2935477   1.3074251
          313         314         315         316         317         318
    1   1.3196793   1.3235648   1.3313872   1.3472142   1.3593440   1.3646502
          319         320         321         322         323         324
    1   1.3733967   1.3825150   1.3866124   1.3997430   1.4101471   1.4198555
          325         326         327         328         329         330
    1   1.4339414   1.4351741   1.4462266   1.4549793   1.4625727   1.4659052
          331         332         333         334         335         336
    1   1.4761578   1.4835955   1.4916805   1.5075288   1.5152509   1.5257370
          337         338         339         340         341         342
    1   1.5301946   1.5380403   1.5402463   1.5616423   1.5715599   1.5762178
          343         344         345         346         347         348
    1   1.5824054   1.5829089   1.5862877   1.5899305   1.6039529   1.6147778
          349         350         351         352         353         354
    1   1.6263515   1.6326391   1.6382769   1.6432586   1.6494099   1.6580326
          355         356         357         358         359         360
    1   1.6736546   1.6882839   1.6910375   1.6950925   1.6979582   1.7090408
          361         362         363         364         365         366
    1   1.7095456   1.7108365   1.7240513   1.7353708   1.7453014   1.7499938
          367         368         369         370         371         372
    1   1.7553273   1.7596269   1.7620377   1.7707767   1.7904006   1.8013816
          373         374         375         376         377         378
    1   1.8040765   1.8074199   1.8453678   1.8514106   1.8582962   1.8685641
          379         380         381         382         383         384
    1   1.8789268   1.8869081   1.8937050   1.8992575   1.9218369   1.9254075
          385         386         387         388         389         390
    1   1.9272452   1.9378257   1.9514404   1.9618460   1.9656008   1.9777971
          391         392         393         394         395         396
    1   1.9879358   1.9985731   2.0022179   2.0083026   2.0204064   2.0361463
          397         398         399         400         401         402
    1   2.0390579   2.0431647   2.0513577   2.0549530   2.0683010   2.0726999
          403         404         405         406         407         408
    1   2.0839689   2.0940520   2.1123533   2.1241033   2.1324725   2.1360617
          409         410         411         412         413         414
    1   2.1514538   2.1651000   2.1733497   2.1770777   2.1851848   2.1953023
          415         416         417         418         419         420
    1   2.1976957   2.1996049   2.2052980   2.2142566   2.2166106   2.2203534
          421         422         423         424         425         426
    1   2.2277631   2.2450253   2.2521020   2.2575655   2.2780139   2.2849441
          427         428         429         430         431         432
    1   2.2888236   2.2918744   2.3185365   2.3236560   2.3387428   2.3421433
          433         434         435         436         437         438
    1   2.3464956   2.3483539   2.3758706   2.3772876   2.3946917   2.4034996
          439         440         441         442         443         444
    1   2.4069691   2.4159138   2.4280286   2.4398125   2.4496651   2.4606169
          445         446         447         448         449         450
    1   2.4784943   2.4824419   2.4992969   2.5003112   2.5214268   2.5259524
          451         452         453         454         455         456
    1   2.5400348   2.5469281   2.5657736   2.5791247   2.5836234   2.5889317
          457         458         459         460         461         462
    1   2.5970319   2.5984633   2.6217276   2.6255920   2.6381821   2.6498614
          463         464         465         466         467         468
    1   2.6551634   2.6630050   2.6725876   2.6806346   2.6849804   2.6908464
          469         470         471         472         473         474
    1   2.7014875   2.7070500   2.7153755   2.7290292   2.7388544   2.7463755
          475         476         477         478         479         480
    1   2.7542637   2.7612822   2.7716719   2.7740470   2.7824015   2.7894483
          481         482         483         484         485         486
    1   2.7990853   2.8028139   2.8104785   2.8276204   2.8291944   2.8379546
          487         488         489         490         491         492
    1   2.8475139   2.8555791   2.8615771   2.8683910   2.8750318   2.8800719
          493         494         495         496         497         498
    1   2.8888899   2.8961503   2.9006217   2.9018602   2.9150590   2.9253864
          499         500         501         502         503         504
    1   2.9309697   2.9439862   2.9494578   2.9603812   2.9623037   2.9698640
          505         506         507         508         509         510
    1   2.9796942   2.9912819   2.9940149   2.9963091   3.0108008   3.0149847
          511         512         513         514         515         516
    1   3.0189100   3.0268317   3.0360646   3.0372446   3.0543387   3.0607921
          517         518         519         520         521         522
    1   3.0696110   3.0719429   3.0842791   3.0863349   3.0906696   3.1056763
          523         524         525         526         527         528
    1   3.1135846   3.1205339   3.1254704   3.1360385   3.1443521   3.1510237
          529         530         531         532         533         534
    1   3.1660874   3.1745064   3.1816063   3.1823181   3.1979311   3.2014842
          535         536         537         538         539         540
    1   3.2059818   3.2117877   3.2135982   3.2186381   3.2376073   3.2391814
          541         542         543         544         545         546
    1   3.2446889   3.2538695   3.2556362   3.2628177   3.2718452   3.2729438
          547         548         549         550         551         552
    1   3.2854316   3.2970552   3.3053313   3.3117656   3.3204450   3.3292129
          553         554         555         556         557         558
    1   3.3345902   3.3386998   3.3412546   3.3514315   3.3591613   3.3654999
          559         560         561         562         563         564
    1   3.3664137   3.3800757   3.3854856   3.3966200   3.4022114   3.4067186
          565         566         567         568         569         570
    1   3.4181533   3.4215119   3.4278609   3.4363862   3.4446774   3.4520338
          571         572         573         574         575         576
    1   3.4543650   3.4606081   3.4637070   3.4693846   3.4731378   3.4807665
          577         578         579         580         581         582
    1   3.4897766   3.4952725   3.4995820   3.5077162   3.5164028   3.5196137
          583         584         585         586         587         588
    1   3.5301185   3.5378399   3.5538590   3.5602064   3.5649616   3.5745424
          589         590         591         592         593         594
    1   3.5826007   3.5955046   3.6045691   3.6114601   3.6185518   3.6287001
          595         596         597         598         599         600
    1   3.6333135   3.6383227   3.6518665   3.6634388   3.6675906   3.6763469
          601         602         603         604         605         606
    1   3.6837861   3.6972446   3.7082372   3.7125541   3.7380328   3.7432692
          607         608         609         610         611         612
    1   3.7513519   3.7679397   3.7743101   3.7889330   3.8292886   3.8386394
          613         614         615         616         617         618
    1   3.8554067   3.8599606   3.8800716   3.8922454   3.9168289   3.9339124
          619         620         621         622         623         624
    1   3.9427205   3.9569538   3.9609323   3.9702156   4.0232296   4.0320136
          625         626         627         628         629         630
    1   4.0363207   4.0415096   4.0516791   4.0673451   4.0827763   4.1011879
          631         632         633         634         635         636
    1   4.1079478   4.1257291   4.1357279   4.1540038   4.1728369   4.1804002
          637         638         639         640         641         642
    1   4.2017477   4.2122898   4.2201556   4.2304969   4.2365287   4.2443379
          643         644         645         646         647         648
    1   4.2512845   4.2661911   4.2668116   4.2787876   4.2892774   4.2962675
          649         650         651         652         653         654
    1   4.3098975   4.3242218   4.3414974   4.3494247   4.3816435   4.3910776
          655         656         657         658         659         660
    1   4.4192610   4.4366885   4.4462916   4.4585460   4.4701973   4.4899956
          661         662         663         664         665         666
    1   4.4980379   4.5094759   4.5319961   4.5678747   4.5743095   4.5946493
          667         668         669         670         671         672
    1   4.6061228   4.6226099   4.6290045   4.6542904   4.6610742   4.6758165
          673         674         675         676         677         678
    1   4.6887994   4.6989226   4.7061118   4.7513393   4.7971599   4.8160998
          679         680         681         682         683         684
    1   4.8222333   4.8541528   4.8880912   4.9261638   4.9323628   4.9431416
          685         686         687         688         689         690
    1   4.9466558   4.9736875   4.9917293   5.0265102   5.0659187   5.0833647
          691         692         693         694         695         696
    1   5.1214027   5.1428714   5.1679315   5.1769700   5.1971352   5.2666071
          697         698         699         700         701         702
    1   5.2943822   5.3032068   5.3051034   5.3065796   5.3150426   5.3429787
          703         704         705         706         707         708
    1   5.3478912   5.3691279   5.3923935   5.4082689   5.4458691   5.4846075
          709         710         711         712         713         714
    1   5.5107611   5.5168138   5.5228554   5.5258782   5.5331206   5.5457913
          715         716         717         718         719         720
    1   5.5571840   5.5703639   5.5836373   5.6191688   5.6496874   5.6950898
          721         722         723         724         725         726
    1   5.7019788   5.7386958   5.8062272   5.8201413   5.8344321   5.8641027
          727         728         729         730         731         732
    1   5.8790989   5.9039654   5.9710270   5.9969920   5.9978328   6.0561163
          733         734         735         736         737         738
    1   6.0698572   6.1063545   6.1682854   6.2238435   6.2506112   6.2665274
          739         740         741         742         743         744
    1   6.3900038   6.4059650   6.4401376   6.4455967   6.4570899   6.4671476
          745         746         747         748         749         750
    1   6.4714674   6.4772507   6.4869199   6.4912433   6.5696737   6.6488339
          751         752         753         754         755         756
    1   6.6678909   6.6805830   6.7041604   6.7697787   6.7757594   6.7809271
          757         758         759         760         761         762
    1   6.7843631   6.8786036   6.9002277   6.9177346   6.9209407   6.9275571
          763         764         765         766         767         768
    1   6.9349742   6.9525195   6.9739863   7.0151402   7.0942405   7.1097829
          769         770         771         772         773         774
    1   7.1213879   7.1443836   7.2738330   7.3676540   7.3725077   7.3999942
          775         776         777         778         779         780
    1   7.4118511   7.4866865   7.5323022   7.5613303  22.4196411  22.4656887
          781         782         783         784         785         786
    1  22.5581023  22.8012091  22.8244658  22.8494974  22.8571075  22.9235300
          787         788         789         790         791         792
    1  22.9682083  23.0189663  23.0590437  23.0896476  23.1926860  23.3334450
          793         794         795         796         797         798
    1  23.5561006  23.6646497  44.0912980  44.1103806  44.1376931  44.1495667
          799         800
    1  44.4026797  44.6731806
 SCF time:   CPU 5336.11s  wall 468.00s 
 DFT Correlation          Energy =  -6.39578357889926
 DFT Exchange             Energy = -98.06683939270035
 HF Exchange              Energy = -38.26608248620488
 One-Electron             Energy = -4842.27251755210364
 SCRF wf-dependent energy Energy = -17.64601108617808
 Total Coulomb            Energy = 2210.88835857804452
 Nuclear repulsion Energy = 1723.10526802239428

************** Final PCM Free Energy Summary **************
 G_electrostatic  =      -0.09188255 hartree =     -57.65717182 kcal/mol
 G_cavitation     =       0.00000000 hartree =       0.00000000 kcal/mol
 G_dispersion     =       0.00000000 hartree =       0.00000000 kcal/mol
 G_repulsion      =       0.00000000 hartree =       0.00000000 kcal/mol
 --------------------------------------------------
 Non-electrostatic Free Energy =       0.00000000 hartree =       0.00000000 kcal/mol
 Total                         =      -0.09188255 hartree =     -57.65717182 kcal/mol
 --------------------------------------------------
 SCF Energy (H0 + V/2)                       =   -1068.65360750 
 Solute Internal Energy (H0)                 =   -1068.56172494 
 Total Free Energy (H0 + V/2 + non-elec)     =   -1068.65360750 hartree
                                             = -670590.26319518 kcal/mol
***********************************************************

 SCF   energy = -1068.65360750
 Total energy = -1068.65360750
 MAX_CIS_SUBSPACE fits in available memory
 Direct TDDFT/TDA calculation will be performed
 Exchange:     0.1900 Hartree-Fock + 0.3500 B88 + 0.4600 muB88 + LR-HF
 Correlation:  0.1900 VWN5 + 0.8100 LYP
 Using SG-1 standard quadrature grid
 Triplet excitation energies requested
 Singlet excitation energies requested
 Adding PCM contribution to the XC response (LR-PCM)
 Optical dielectric constant (eps_inf) =  1.78
 CIS energy converged when residual is below 10e- 6
 ---------------------------------------------------
 Iter    Rts Conv    Rts Left    Ttl Dev     Max Dev
 ---------------------------------------------------
   1         0           7      0.000962    0.000159
   2         0           7      0.000368    0.000100
   3         0           7      0.000189    0.000080
   4         0           7      0.000098    0.000044
   5         2           5      0.000041    0.000018
   6         3           4      0.000022    0.000012
   7         5           2      0.000009    0.000005
   8         6           1      0.000003    0.000002
   9         7           0      0.000002    0.000001    Roots Converged
 ---------------------------------------------------
 Triplets done: starting singlet calculation
 ---------------------------------------------------
 Iter    Rts Conv    Rts Left    Ttl Dev     Max Dev
 ---------------------------------------------------
  10         0           7      0.002528    0.000451
  11         0           7      0.000630    0.000131
  12         0           7      0.000340    0.000073
  13         0           7      0.000205    0.000069
  14         0           7      0.000091    0.000029
  15         2           5      0.000056    0.000028
  16         3           4      0.000030    0.000017
  17         5           2      0.000014    0.000008
  18         5           2      0.000009    0.000005
  19         6           1      0.000006    0.000003
  20         6           1      0.000005    0.000002
  21         6           1      0.000004    0.000001
  22         7           0      0.000003    0.000001    Roots Converged
 ---------------------------------------------------
 
 ---------------------------------------------------
         TDDFT/TDA Excitation Energies              
 ---------------------------------------------------

 Excited state   1: excitation energy (eV) =       1.8284
 Total energy for state   1:                 -1068.58641372 au
    Multiplicity: Triplet
    Trans. Mom.:  0.0000 X   0.0000 Y   0.0000 Z
    Strength   :     0.0000000000
    D(   74) --> V(    1) amplitude =  0.1574
    D(   75) --> V(    1) amplitude = -0.0768
    D(   77) --> V(    1) amplitude = -0.2174
    D(   77) --> V(    2) amplitude =  0.0796
    D(   78) --> V(    1) amplitude =  0.9394

 Excited state   2: excitation energy (eV) =       2.7225
 Total energy for state   2:                 -1068.55355765 au
    Multiplicity: Triplet
    Trans. Mom.:  0.0000 X   0.0000 Y   0.0000 Z
    Strength   :     0.0000000000
    D(   73) --> V(    1) amplitude = -0.1065
    D(   75) --> V(    3) amplitude = -0.0792
    D(   76) --> V(    1) amplitude = -0.1585
    D(   77) --> V(    1) amplitude =  0.8796
    D(   78) --> V(    1) amplitude =  0.1982
    D(   78) --> V(    2) amplitude =  0.2738
    D(   78) --> V(    3) amplitude = -0.1192
    D(   78) --> V(    9) amplitude =  0.0826

 Excited state   3: excitation energy (eV) =       2.9051
 Total energy for state   3:                 -1068.54684723 au
    Multiplicity: Singlet
    Trans. Mom.: -2.9858 X  -2.2021 Y   0.3217 Z
    Strength   :     0.9869884618
    D(   77) --> V(    1) amplitude = -0.2313
    D(   78) --> V(    1) amplitude =  0.9519

 Excited state   4: excitation energy (eV) =       3.2330
 Total energy for state   4:                 -1068.53479719 au
    Multiplicity: Triplet
    Trans. Mom.:  0.0000 X   0.0000 Y   0.0000 Z
    Strength   :     0.0000000000
    D(   71) --> V(    1) amplitude =  0.0991
    D(   75) --> V(    1) amplitude =  0.1576
    D(   75) --> V(    2) amplitude = -0.0732
    D(   75) --> V(    3) amplitude =  0.0879
    D(   76) --> V(    1) amplitude =  0.8981
    D(   76) --> V(    2) amplitude =  0.0895
    D(   76) --> V(    9) amplitude =  0.0746
    D(   77) --> V(    1) amplitude =  0.1174
    D(   77) --> V(    2) amplitude =  0.1930
    D(   77) --> V(    3) amplitude = -0.1619
    D(   78) --> V(    1) amplitude =  0.0916

 Excited state   5: excitation energy (eV) =       3.5671
 Total energy for state   5:                 -1068.52251730 au
    Multiplicity: Singlet
    Trans. Mom.: -1.1204 X  -0.6271 Y   0.0242 Z
    Strength   :     0.1441139425
    D(   74) --> V(    1) amplitude =  0.0738
    D(   75) --> V(    1) amplitude = -0.1743
    D(   76) --> V(    1) amplitude = -0.2381
    D(   77) --> V(    1) amplitude =  0.9002
    D(   78) --> V(    1) amplitude =  0.2295
    D(   78) --> V(    2) amplitude =  0.0975

 Excited state   6: excitation energy (eV) =       3.6082
 Total energy for state   6:                 -1068.52100895 au
    Multiplicity: Triplet
    Trans. Mom.:  0.0000 X   0.0000 Y   0.0000 Z
    Strength   :     0.0000000000
    D(   69) --> V(    1) amplitude =  0.0940
    D(   74) --> V(    1) amplitude = -0.0792
    D(   75) --> V(    1) amplitude =  0.7985
    D(   75) --> V(    9) amplitude =  0.0932
    D(   76) --> V(    1) amplitude = -0.1131
    D(   76) --> V(    2) amplitude = -0.2124
    D(   76) --> V(    3) amplitude =  0.2093
    D(   77) --> V(    1) amplitude = -0.2000
    D(   77) --> V(    5) amplitude =  0.1177
    D(   78) --> V(    2) amplitude =  0.3551
    D(   78) --> V(    9) amplitude =  0.1007

 Excited state   7: excitation energy (eV) =       3.8709
 Total energy for state   7:                 -1068.51135399 au
    Multiplicity: Singlet
    Trans. Mom.:  0.4276 X   0.4859 Y  -0.0450 Z
    Strength   :     0.0399282701
    D(   76) --> V(    1) amplitude =  0.9338
    D(   77) --> V(    1) amplitude =  0.2410
    D(   77) --> V(    2) amplitude =  0.1121
    D(   78) --> V(    3) amplitude = -0.1175
    D(   78) --> V(    5) amplitude = -0.0767

 Excited state   8: excitation energy (eV) =       3.8802
 Total energy for state   8:                 -1068.51101233 au
    Multiplicity: Triplet
    Trans. Mom.:  0.0000 X   0.0000 Y   0.0000 Z
    Strength   :     0.0000000000
    D(   74) --> V(    1) amplitude =  0.2225
    D(   74) --> V(   26) amplitude = -0.0875
    D(   75) --> V(    1) amplitude = -0.2787
    D(   75) --> V(    2) amplitude = -0.2170
    D(   76) --> V(    1) amplitude =  0.1676
    D(   77) --> V(    1) amplitude = -0.1429
    D(   77) --> V(    2) amplitude = -0.3442
    D(   77) --> V(    9) amplitude =  0.1346
    D(   78) --> V(    2) amplitude =  0.7368
    D(   78) --> V(    3) amplitude =  0.0932
    D(   78) --> V(    9) amplitude = -0.1087

 Excited state   9: excitation energy (eV) =       4.0929
 Total energy for state   9:                 -1068.50319749 au
    Multiplicity: Triplet
    Trans. Mom.:  0.0000 X   0.0000 Y   0.0000 Z
    Strength   :     0.0000000000
    D(   61) --> V(    1) amplitude =  0.0758
    D(   71) --> V(    1) amplitude =  0.1456
    D(   73) --> V(    1) amplitude =  0.2454
    D(   74) --> V(    1) amplitude =  0.7711
    D(   74) --> V(    2) amplitude = -0.1631
    D(   75) --> V(    1) amplitude =  0.2434
    D(   75) --> V(    2) amplitude = -0.0838
    D(   75) --> V(    3) amplitude =  0.0773
    D(   77) --> V(    1) amplitude =  0.1268
    D(   77) --> V(    2) amplitude = -0.0738
    D(   77) --> V(    3) amplitude =  0.0928
    D(   77) --> V(    5) amplitude = -0.1350
    D(   78) --> V(    2) amplitude = -0.1721
    D(   78) --> V(    3) amplitude = -0.0969
    D(   78) --> V(    9) amplitude = -0.2088
    D(   78) --> V(   10) amplitude = -0.0865

 Excited state  10: excitation energy (eV) =       4.3100
 Total energy for state  10:                 -1068.49521766 au
    Multiplicity: Triplet
    Trans. Mom.:  0.0000 X   0.0000 Y   0.0000 Z
    Strength   :     0.0000000000
    D(   71) --> V(    1) amplitude =  0.0964
    D(   74) --> V(    2) amplitude =  0.0772
    D(   74) --> V(    3) amplitude =  0.0796
    D(   75) --> V(    1) amplitude = -0.0767
    D(   75) --> V(    2) amplitude = -0.1121
    D(   75) --> V(    3) amplitude = -0.1701
    D(   76) --> V(    2) amplitude = -0.2480
    D(   76) --> V(    5) amplitude =  0.3710
    D(   77) --> V(    1) amplitude = -0.0734
    D(   77) --> V(    2) amplitude =  0.4453
    D(   77) --> V(    3) amplitude =  0.4905
    D(   77) --> V(    9) amplitude =  0.0997
    D(   78) --> V(    3) amplitude = -0.0773
    D(   78) --> V(    5) amplitude =  0.3840
    D(   78) --> V(    9) amplitude =  0.0972

 Excited state  11: excitation energy (eV) =       4.5999
 Total energy for state  11:                 -1068.48456478 au
    Multiplicity: Singlet
    Trans. Mom.: -0.2130 X  -0.6323 Y   0.2237 Z
    Strength   :     0.0558042955
    D(   75) --> V(    1) amplitude =  0.8181
    D(   76) --> V(    2) amplitude = -0.1911
    D(   77) --> V(    1) amplitude =  0.1954
    D(   77) --> V(    2) amplitude =  0.2900
    D(   77) --> V(    3) amplitude =  0.1071
    D(   78) --> V(    2) amplitude = -0.3014
    D(   78) --> V(    5) amplitude =  0.1479

 Excited state  12: excitation energy (eV) =       5.1292
 Total energy for state  12:                 -1068.46511216 au
    Multiplicity: Singlet
    Trans. Mom.:  0.7470 X  -0.6088 Y   0.5590 Z
    Strength   :     0.1559658389
    D(   74) --> V(    1) amplitude = -0.3939
    D(   75) --> V(    1) amplitude =  0.3350
    D(   75) --> V(    3) amplitude = -0.1071
    D(   76) --> V(    1) amplitude =  0.0984
    D(   76) --> V(    5) amplitude =  0.1053
    D(   77) --> V(    2) amplitude = -0.1656
    D(   77) --> V(    5) amplitude =  0.0959
    D(   77) --> V(    9) amplitude =  0.0949
    D(   78) --> V(    2) amplitude =  0.7325
    D(   78) --> V(    3) amplitude =  0.2500

[...]
      XZZZ     127.7378   YZZZ     268.8786   ZZZZ    -662.0615
    5th-Order Moments (Debye-Ang^4)
       500   11562.0994    410  -11758.8359    320   -1336.7209
       230  -12869.2186    140   -7852.0867    050  -57134.0108
       401     -10.6147    311      56.2428    221     569.3007
       131    -428.2974    041    -297.4849    302    3487.9145
       212   -1955.5324    122   -1263.3633    032   -8090.1313
       203    -343.0437    113    -335.0869    023    1587.6704
       104     836.9655    014    -907.1419    005   -1057.6891
 -----------------------------------------------------------------
 -----------------------------------------------------------------
                 RPA Excited-State Multipoles, State    4   
                  LMN = < X^L Y^M Z^N >
 -----------------------------------------------------------------
    Charge (ESU x 10^10)
                 4.8032
    Dipole Moment (Debye)
         X     -12.1149      Y       9.6697      Z       1.5536
       Tot      15.5784
    Quadrupole Moments (Debye-Ang)
        XX     -49.9398     XY       4.7635     YY     -38.2516
        XZ      -4.4977     YZ     -17.4777     ZZ    -119.5834
    Octopole Moments (Debye-Ang^2)
       XXX    -116.7942    XXY    -394.1791    XYY      57.5147
       YYY    -377.1191    XXZ       8.4699    XYZ      13.1225
       YYZ    -108.9783    XZZ     115.2372    YZZ    -312.7239
       ZZZ     -99.6047
    Hexadecapole Moments (Debye-Ang^3)
      XXXX   -3403.2634   XXXY    -343.5986   XXYY   -2588.1283
      XYYY    -809.5087   YYYY   -5165.7127   XXXZ     -40.2688
      XXYZ      32.9965   XYYZ      -7.7227   YYYZ    -304.3743
      XXZZ   -1155.9037   XYZZ    -210.0314   YYZZ   -1543.3703
      XZZZ     124.1554   YZZZ     262.8933   ZZZZ    -666.5270
    5th-Order Moments (Debye-Ang^4)
       500   12449.8817    410  -12578.7559    320   -1527.9660
       230  -13568.5929    140   -8523.5289    050  -52531.6017
       401     311.7563    311      23.3600    221     624.5096
       131    -425.1588    041    -777.2849    302    3514.7141
       212   -1967.6077    122   -1258.5759    032   -7957.5813
       203    -333.7194    113    -338.1823    023    1562.6275
       104     833.8224    014    -904.2354    005   -1068.6882
 -----------------------------------------------------------------
 -----------------------------------------------------------------
                 RPA Excited-State Multipoles, State    5   
                  LMN = < X^L Y^M Z^N >
 -----------------------------------------------------------------
    Charge (ESU x 10^10)
                 4.8032
    Dipole Moment (Debye)
         X     -15.7975      Y       7.7902      Z       1.2671
       Tot      17.6594
    Quadrupole Moments (Debye-Ang)
        XX     -33.0777     XY       4.4065     YY     -46.5610
        XZ      -5.8693     YZ     -18.1804     ZZ    -120.1743
    Octopole Moments (Debye-Ang^2)
       XXX    -173.3550    XXY    -371.7864    XYY      64.4139
       YYY    -426.5716    XXZ      12.8373    XYZ      14.6965
       YYZ    -105.7190    XZZ     111.3707    YZZ    -316.1072
       ZZZ    -100.9784
    Hexadecapole Moments (Debye-Ang^3)
      XXXX   -3161.9977   XXXY    -334.2784   XXYY   -2448.7098
      XYYY    -692.4434   YYYY   -5419.8327   XXXZ     -80.8711
      XXYZ      10.6997   XYYZ     -19.7642   YYYZ    -286.4737
      XXZZ   -1138.8295   XYZZ    -207.9524   YYZZ   -1553.3905
      XZZZ     121.1002   YZZZ     260.6252   ZZZZ    -670.7524
    5th-Order Moments (Debye-Ang^4)
       500   11685.9650    410  -12340.1144    320   -1400.0742
       230  -12908.8447    140   -7731.5694    050  -53958.8161
       401     449.3615    311      27.0440    221     585.4693
       131    -461.9730    041    -629.9337    302    3442.8271
       212   -1972.7371    122   -1266.1546    032   -8022.5409
       203    -319.7217    113    -330.9685    023    1570.3953
       104     825.2680    014    -914.3307    005   -1081.2666
 -----------------------------------------------------------------
 -----------------------------------------------------------------
                 RPA Excited-State Multipoles, State    6   
                  LMN = < X^L Y^M Z^N >
 -----------------------------------------------------------------
    Charge (ESU x 10^10)
                 4.8032
    Dipole Moment (Debye)
         X     -13.5625      Y       5.4482      Z       2.6614
       Tot      14.8562
    Quadrupole Moments (Debye-Ang)
        XX     -36.9039     XY       7.0126     YY     -65.8349
        XZ      -5.2577     YZ     -13.7052     ZZ    -119.5232
    Octopole Moments (Debye-Ang^2)
       XXX    -149.8451    XXY    -375.6937    XYY      64.7473
       YYY    -551.2441    XXZ      11.9742    XYZ      15.1495
       YYZ     -88.4513    XZZ     113.2953    YZZ    -316.4169
       ZZZ     -97.3975
    Hexadecapole Moments (Debye-Ang^3)
      XXXX   -3093.3272   XXXY    -280.7482   XXYY   -2497.1494
      XYYY    -783.1507   YYYY   -6242.0196   XXXZ     -53.1409
      XXYZ      32.3446   XYYZ       2.8214   YYYZ    -188.7998
      XXZZ   -1145.5696   XYZZ    -209.4980   YYZZ   -1566.4215
      XZZZ     121.8939   YZZZ     269.5997   ZZZZ    -666.1317
    5th-Order Moments (Debye-Ang^4)
       500   11215.4157    410  -12217.3655    320   -1181.9215
       230  -13136.1168    140   -8476.9244    050  -59250.6808
       401     343.8561    311      28.8755    221     629.2980
       131    -357.5678    041     -81.2472    302    3479.3280
       212   -1958.8009    122   -1260.0327    032   -8106.2985
       203    -325.2570    113    -334.9943    023    1600.4805
       104     828.3016    014    -913.0013    005   -1061.4363
 -----------------------------------------------------------------
 -----------------------------------------------------------------
                 RPA Excited-State Multipoles, State    7   
                  LMN = < X^L Y^M Z^N >
 -----------------------------------------------------------------
    Charge (ESU x 10^10)
                 4.8032
    Dipole Moment (Debye)
         X     -10.7279      Y       6.5774      Z       2.9564
       Tot      12.9263
    Quadrupole Moments (Debye-Ang)
        XX     -52.3414     XY       6.1893     YY     -60.4170
        XZ      -3.6235     YZ     -14.3195     ZZ    -118.3545
    Octopole Moments (Debye-Ang^2)
       XXX     -79.2102    XXY    -365.3166    XYY      73.7281
       YYY    -517.1832    XXZ      -1.2279    XYZ      14.3950
       YYZ     -91.8582    XZZ     114.7965    YZZ    -315.4488
       ZZZ     -95.0223
    Hexadecapole Moments (Debye-Ang^3)
      XXXX   -3469.3846   XXXY    -334.9005   XXYY   -2467.0653
      XYYY    -712.5970   YYYY   -6039.2027   XXXZ       9.3311
      XXYZ      19.3352   XYYZ      -4.9429   YYYZ    -205.5248
      XXZZ   -1156.7966   XYZZ    -210.7472   YYZZ   -1564.3085
      XZZZ     124.3210   YZZZ     269.8876   ZZZZ    -659.4978
    5th-Order Moments (Debye-Ang^4)
       500   12983.1090    410  -11951.7023    320   -1167.4995
       230  -12896.4280    140   -7974.2102    050  -58060.1258
       401     -22.7192    311      37.3344    221     585.0509
       131    -402.0221    041    -156.7425    302    3543.7534
       212   -1954.7324    122   -1258.6389    032   -8095.8774
       203    -346.3895    113    -336.9090    023    1596.5571
       104     831.1420    014    -908.5797    005   -1045.4097
 -----------------------------------------------------------------
 -----------------------------------------------------------------
                 RPA Excited-State Multipoles, State    8   
                  LMN = < X^L Y^M Z^N >
 -----------------------------------------------------------------
    Charge (ESU x 10^10)
                 4.8032
    Dipole Moment (Debye)
         X      -8.6428      Y      12.8718      Z       0.9725
       Tot      15.5347
    Quadrupole Moments (Debye-Ang)
        XX     -54.4227     XY      11.0849     YY     -22.4353
        XZ      -3.1873     YZ     -17.8177     ZZ    -120.1875
    Octopole Moments (Debye-Ang^2)
       XXX     -71.8341    XXY    -385.6540    XYY      80.1587
       YYY    -298.7508    XXZ       6.5861    XYZ      14.4137
       YYZ    -110.8380    XZZ     118.4524    YZZ    -310.8113
       ZZZ    -101.4895
    Hexadecapole Moments (Debye-Ang^3)
      XXXX   -3527.6388   XXXY    -284.8052   XXYY   -2548.0302
      XYYY    -725.9921   YYYY   -4778.2173   XXXZ     -26.8046
      XXYZ      36.7530   XYYZ      -2.5143   YYYZ    -314.4691
      XXZZ   -1160.9718   XYZZ    -206.0471   YYZZ   -1533.9480
      XZZZ     128.1467   YZZZ     262.4983   ZZZZ    -670.3792
    5th-Order Moments (Debye-Ang^4)
       500   13343.5477    410  -12534.7092    320   -1327.0601
       230  -13372.7114    140   -8168.6955    050  -50515.9060
       401     277.4326    311      33.0264    221     636.0790
       131    -411.7876    041    -853.7110    302    3553.8016
       212   -1960.4496    122   -1242.6024    032   -7906.0546
       203    -340.1758    113    -335.8024    023    1559.0104
       104     843.9066    014    -901.1854    005   -1079.7372
 -----------------------------------------------------------------
 -----------------------------------------------------------------
                 RPA Excited-State Multipoles, State    9   
                  LMN = < X^L Y^M Z^N >
 -----------------------------------------------------------------
    Charge (ESU x 10^10)
                 4.8032
    Dipole Moment (Debye)
         X     -14.4325      Y       2.9449      Z       3.8654
       Tot      15.2286
    Quadrupole Moments (Debye-Ang)
        XX     -49.3148     XY      -3.8852     YY     -77.9711
        XZ      -3.8527     YZ     -14.0574     ZZ    -116.9326
    Octopole Moments (Debye-Ang^2)
       XXX    -133.0977    XXY    -380.2217    XYY      34.2810
       YYY    -597.7866    XXZ      -1.1823    XYZ      13.0412
       YYZ     -93.0878    XZZ     112.4211    YZZ    -316.4182
       ZZZ     -91.7033
    Hexadecapole Moments (Debye-Ang^3)
      XXXX   -3294.2544   XXXY    -443.3865   XXYY   -2569.4377
      XYYY    -907.8178   YYYY   -6449.4000   XXXZ      18.3288
      XXYZ      22.5649   XYYZ      -0.9150   YYYZ    -200.0929
      XXZZ   -1152.3806   XYZZ    -219.5586   YYZZ   -1576.5239
      XZZZ     123.8005   YZZZ     272.2682   ZZZZ    -652.9586
    5th-Order Moments (Debye-Ang^4)
       500   11487.1661    410  -11972.5887    320   -1572.3189
       230  -13441.0091    140   -8971.6810    050  -60237.8603
       401     -75.3261    311      47.0597    221     583.6093
       131    -387.9092    041    -106.6858    302    3502.8028
       212   -1953.9018    122   -1279.0732    032   -8145.5676
       203    -344.2673    113    -343.9287    023    1592.3558
       104     827.1024    014    -905.6493    005   -1030.3026
 -----------------------------------------------------------------
 -----------------------------------------------------------------
                 RPA Excited-State Multipoles, State   10   
                  LMN = < X^L Y^M Z^N >
 -----------------------------------------------------------------
    Charge (ESU x 10^10)
                 4.8032
    Dipole Moment (Debye)
         X     -13.9593      Y       5.1866      Z       2.9371
       Tot      15.1786
    Quadrupole Moments (Debye-Ang)
        XX     -50.3687     XY       0.5191     YY     -63.5521
        XZ      -5.4256     YZ     -15.9806     ZZ    -118.1377
    Octopole Moments (Debye-Ang^2)
       XXX    -114.9216    XXY    -383.4924    XYY      44.3231
       YYY    -531.0160    XXZ       3.6002    XYZ      15.6212
       YYZ     -94.9818    XZZ     110.7333    YZZ    -317.3537
       ZZZ     -94.8918
    Hexadecapole Moments (Debye-Ang^3)
      XXXX   -3461.5413   XXXY    -387.8869   XXYY   -2527.5448
      XYYY    -824.6192   YYYY   -6070.2710   XXXZ     -20.3599
      XXYZ       9.6880   XYYZ     -11.6509   YYYZ    -224.9596
      XXZZ   -1151.4445   XYZZ    -211.4749   YYZZ   -1565.0695
      XZZZ     117.7474   YZZZ     265.1821   ZZZZ    -658.6776
    5th-Order Moments (Debye-Ang^4)
       500   12814.9334    410  -12205.6441    320   -1480.8630
       230  -13240.3601    140   -8493.9176    050  -58042.9930
       401      97.9874    311      50.6500    221     586.9713
       131    -416.3049    041    -251.4605    302    3502.2809
       212   -1978.5293    122   -1278.3959    032   -8099.9428
       203    -330.9485    113    -333.1605    023    1589.3761
       104     816.9009    014    -915.9047    005   -1043.8166
 -----------------------------------------------------------------
 -----------------------------------------------------------------
                 RPA Excited-State Multipoles, State   11   
                  LMN = < X^L Y^M Z^N >
 -----------------------------------------------------------------
    Charge (ESU x 10^10)
                 4.8032
    Dipole Moment (Debye)
         X     -12.5179      Y       7.3301      Z       2.0070
       Tot      14.6443
    Quadrupole Moments (Debye-Ang)
        XX     -31.4932     XY      10.9065     YY     -55.2595
        XZ      -3.7112     YZ     -14.8840     ZZ    -119.8567
    Octopole Moments (Debye-Ang^2)
       XXX    -161.5545    XXY    -344.7881    XYY      96.0325
       YYY    -489.3096    XXZ       2.0022    XYZ      15.1360
       YYZ     -92.8031    XZZ     114.3210    YZZ    -315.8645
       ZZZ     -98.9141
    Hexadecapole Moments (Debye-Ang^3)
      XXXX   -2916.3579   XXXY    -301.2866   XXYY   -2367.6838
      XYYY    -588.4809   YYYY   -5884.1431   XXXZ     -11.7496
      XXYZ      14.5360   XYYZ      -5.4870   YYYZ    -208.3641
      XXZZ   -1143.1724   XYZZ    -208.0361   YYZZ   -1563.1946
      XZZZ     125.7893   YZZZ     268.0413   ZZZZ    -668.5733
    5th-Order Moments (Debye-Ang^4)
       500   10372.2362    410  -11561.6028    320    -960.9448
       230  -12449.9078    140   -7314.2395    050  -57174.1405
       401      71.0901    311      59.2132    221     575.5173
       131    -411.8893    041    -177.1885    302    3472.7656
       212   -1943.5096    122   -1247.3657    032   -8085.3483
       203    -342.2612    113    -334.4414    023    1594.3413
       104     834.0563    014    -912.5630    005   -1069.9839
 -----------------------------------------------------------------
 -----------------------------------------------------------------
                 RPA Excited-State Multipoles, State   12   
                  LMN = < X^L Y^M Z^N >
 -----------------------------------------------------------------
    Charge (ESU x 10^10)
                 4.8032
    Dipole Moment (Debye)
         X     -10.4713      Y       6.4783      Z       3.1804
       Tot      12.7174
    Quadrupole Moments (Debye-Ang)
        XX     -53.6298     XY       8.4947     YY     -57.0498
        XZ      -4.3885     YZ     -15.3278     ZZ    -118.0950
    Octopole Moments (Debye-Ang^2)
       XXX     -76.3887    XXY    -370.8791    XYY      81.3195
       YYY    -490.1529    XXZ       0.4983    XYZ      14.4241
       YYZ     -95.6443    XZZ     114.6131    YZZ    -316.0688
       ZZZ     -94.6386
    Hexadecapole Moments (Debye-Ang^3)
      XXXX   -3508.6124   XXXY    -314.1136   XXYY   -2457.9792
      XYYY    -656.1855   YYYY   -5839.1212   XXXZ      -1.6205
      XXYZ      10.3557   XYYZ     -13.2686   YYYZ    -230.8566
      XXZZ   -1156.8397   XYZZ    -208.1637   YYZZ   -1562.3675
      XZZZ     122.5703   YZZZ     267.5599   ZZZZ    -660.1075
    5th-Order Moments (Debye-Ang^4)
       500   13183.5908    410  -12033.9417    320   -1112.8525
       230  -12801.4728    140   -7627.2892    050  -56713.1749
       401      -8.1804    311      44.2251    221     570.2526
       131    -434.3194    041    -300.3971    302    3542.2314
       212   -1967.6354    122   -1259.2131    032   -8082.2386
       203    -340.1921    113    -335.2552    023    1590.3626
       104     831.5337    014    -912.2074    005   -1048.9581
 -----------------------------------------------------------------
 -----------------------------------------------------------------
                 RPA Excited-State Multipoles, State   13   
                  LMN = < X^L Y^M Z^N >
 -----------------------------------------------------------------
    Charge (ESU x 10^10)
                 4.8032
    Dipole Moment (Debye)
         X     -10.4858      Y       7.1781      Z       2.8643
       Tot      13.0262
    Quadrupole Moments (Debye-Ang)
        XX     -57.6881     XY       6.0205     YY     -53.5852
        XZ      -3.8342     YZ     -15.8982     ZZ    -118.4970
    Octopole Moments (Debye-Ang^2)
       XXX     -78.3826    XXY    -378.7038    XYY      81.5231
       YYY    -451.0397    XXZ      -1.8161    XYZ       9.6791
       YYZ    -105.0881    XZZ     116.5828    YZZ    -315.2736
       ZZZ     -95.2344
    Hexadecapole Moments (Debye-Ang^3)
      XXXX   -3575.7688   XXXY    -340.0837   XXYY   -2500.9430
      XYYY    -643.7945   YYYY   -5533.5277   XXXZ      -6.6137
      XXYZ      15.9362   XYYZ     -22.6362   YYYZ    -285.4809
      XXZZ   -1167.1733   XYZZ    -212.8565   YYZZ   -1562.6610
      XZZZ     125.7275   YZZZ     267.5370   ZZZZ    -661.5460
    5th-Order Moments (Debye-Ang^4)
       500   13126.4863    410  -12299.1581    320   -1191.9320
       230  -12902.1276    140   -7414.4069    050  -54413.1446
       401      29.2186    311     -19.8482    221     532.7678
       131    -509.6447    041    -669.0516    302    3555.2463
       212   -1970.8973    122   -1259.0121    032   -8057.0603
       203    -352.4431    113    -346.7827    023    1571.0407
       104     839.6953    014    -910.6066    005   -1049.7856
 -----------------------------------------------------------------
 -----------------------------------------------------------------
                 RPA Excited-State Multipoles, State   14   
                  LMN = < X^L Y^M Z^N >
 -----------------------------------------------------------------
    Charge (ESU x 10^10)
                 4.8032
    Dipole Moment (Debye)
         X     -15.3931      Y       2.2227      Z       4.0397
       Tot      16.0688
    Quadrupole Moments (Debye-Ang)
        XX     -42.0558     XY      -4.7750     YY     -79.1313
        XZ      -2.7009     YZ     -15.0229     ZZ    -116.3498
    Octopole Moments (Debye-Ang^2)
       XXX    -179.8794    XXY    -374.9639    XYY      35.1285
       YYY    -593.5122    XXZ      -3.1612    XYZ      13.6061
       YYZ     -97.0148    XZZ     113.2626    YZZ    -317.4065
       ZZZ     -90.7212
    Hexadecapole Moments (Debye-Ang^3)
      XXXX   -3071.0366   XXXY    -490.1656   XXYY   -2547.3177
      XYYY    -875.3203   YYYY   -6372.3368   XXXZ      24.0174
      XXYZ      11.0944   XYYZ      -7.1661   YYYZ    -222.7306
      XXZZ   -1148.6389   XYZZ    -219.8535   YYZZ   -1579.5616
      XZZZ     128.5235   YZZZ     270.7572   ZZZZ    -651.7850
    5th-Order Moments (Debye-Ang^4)
       500   10166.1490    410  -11751.6970    320   -1630.3162
       230  -13315.9869    140   -8702.0791    050  -59543.3253
       401    -135.4480    311      57.9836    221     550.8947
       131    -425.9362    041    -239.8290    302    3471.1354
       212   -1960.0658    122   -1285.8163    032   -8155.1298
       203    -347.2171    113    -340.7661    023    1585.5118
       104     835.8879    014    -909.0832    005   -1030.5302
 -----------------------------------------------------------------
 Total job time:  4371.52s(wall), 59680.38s(cpu) 
 Fri Jan 31 00:52:29 2025

        *************************************************************
        *                                                           *
        *  Thank you very much for using Q-Chem.  Have a nice day.  *
        *                                                           *
        *************************************************************


