
Running Job 1 of 1 Peonidin_Q4_tddft_full.in
qchem Peonidin_Q4_tddft_full.in_1346768.0 /data/brussel/103/vsc10365/activedata/TDDFTAnthocyanidines/qchem1346768/ 1
/apps/brussel/RL8/skylake/software/Q-Chem/6.2.0/exe/qcprog.exe_s Peonidin_Q4_tddft_full.in_1346768.0 /data/brussel/103/vsc10365/activedata/TDDFTAnthocyanidines/qchem1346768/
                  Welcome to Q-Chem
     A Quantum Leap Into The Future Of Chemistry


 Q-Chem 6.2, Q-Chem, Inc., Pleasanton, CA (2024)

 License issued to: SRG Prof. Dr. Frank De Proft, Vrije Universiteit Brussel

 E. Epifanovsky,  A. T. B. Gilbert,  Xintian Feng,  Joonho Lee,  Yuezhi Mao,  
 N. Mardirossian,  P. Pokhilko,  A. White,  M. Wormit,  M. P. Coons,  
 A. L. Dempwolff,  Zhengting Gan,  D. Hait,  P. R. Horn,  L. D. Jacobson,  
 I. Kaliman,  J. Kussmann,  A. W. Lange,  Ka Un Lao,  D. S. Levine,  Jie Liu,  
 S. C. McKenzie,  A. F. Morrison,  K. D. Nanda,  F. Plasser,  D. R. Rehn,  
 M. L. Vidal,  Zhi-Qiang You,  Ying Zhu,  Huseyin Aksu,  B. Alam,  
 B. Albrecht,  A. Aldossary,  E. Alguire,  J. H. Andersen,  
 J. E. Arias-Martinez,  V. Athavale,  D. Barton,  K. Begam,  A. Behn,  
 N. Bellonzi,  Y. A. Bernard,  E. J. Berquist,  H. Burton,  A. Carreras,  
 K. Carter-Fenk,  Mathew Chow,  Romit Chakraborty,  Chandrima Chakravarty,  
 Junhan Chen,  A. D. Chien,  K. D. Closser,  V. Cofer-Shabica,  L. Cunha,  
 S. Dasgupta,  Jia Deng,  Joseph Dickinson,  M. de Wergifosse,  
 M. Diedenhofen,  Hainam Do,  Wenjie Dou,  S. Ehlert,  Po-Tung Fang,  
 S. Fatehi,  Qingguo Feng,  Jonathan Fetherolf,  T. Friedhoff,  
 Thomas Froitzheim,  Sarai Folkestad,  B. Ganoe,  J. Gayvert,  Qinghui Ge,  
 G. Gidofalvi,  M. Gimferrer,  M. Goldey,  Montgomery Gray,  J. Gomes,  
 C. Gonzalez-Espinoza,  S. Gulania,  A. Gunina,  J. A. Gyamfi,  
 M. W. D. Hanson-Heine,  P. H. P. Harbach,  A. W. Hauser,  M. F. Herbst,  
 M. Hernandez Vera,  M. Hodecker,  Z. C. Holden,  S. Houck,  Xunkun Huang,  
 Kerwin Hui,  B. C. Huynh,  K. Ikeda,  M. Ivanov,  Nayanthara K. Jayadev,  
 Hyunjun Ji,  Zuxin Jin,  Hanjie Jiang,  Subrata Jana,  B. Kaduk,  
 S. Kaehler,  R. Kang,  K. Khistyaev,  Jaehoon Kim,  Yongbin Kim,  
 P. Klunzinger,  Z. Koczor-Benda,  Joong Hoon Koh,  D. Kosenkov,  
 Saikiran Kotaru,  L. Koulias,  T. Kowalczyk,  C. M. Krauter,  K. Kue,  
 A. Kunitsa,  T. Kus,  A. Landau,  K. V. Lawler,  D. Lefrancois,  S. Lehtola,  
 Rain Li,  Shaozhi Li,  Tao E. Li,  Yi-Pei Li,  Jiashu Liang,  M. Liebenthal,  
 Hung-Hsuan Lin,  You-Sheng Lin,  Fenglai Liu,  Kuan-Yu Liu,  Xiao Liu,  
 M. Loipersberger,  A. Luenser,  C. Malbon,  Aniket Mandal,  Manisha,  
 A. Manjanath,  P. Manohar,  E. Mansoor,  S. F. Manzer,  Shan-Ping Mao,  
 A. V. Marenich,  T. Markovich,  S. Mason,  F. Matz,  S. A. Maurer,  
 Samuel May,  Alexandra McIsaac,  P. F. McLaughlin,  M. F. S. J. Menger,  
 J.-M. Mewes,  S. A. Mewes,  P. Morgante,  Mohammad Mostafanejad,  
 Madhubani Mukherjee,  J. W. Mullinax,  Quyen Nguyen,  Avik Kumar Ojha,  
 K. J. Oosterbaan,  Eno Paenurk,  Xiaoliang Pan,  G. Paran,  V. Parravicini,  
 Alexander C. Paul,  Suranjan K. Paul,  F. Pavosevic,  Zheng Pei,  S. Prager,  
 E. I. Proynov,  E. Ramos,  B. Rana,  A. E. Rask,  A. Rettig,  R. M. Richard,  
 F. Rob,  E. Rossomme,  T. Scheele,  M. Scheurer,  M. Schneider,  
 P. E. Schneider,  Tim K. Schramm,  N. Sergueev,  S. M. Sharada,  
 Hengyuan Shen,  W. Skomorowski,  D. W. Small,  C. J. Stein,  
 Alistair J. Sterling,  Yingli Su,  Yu-Chuan Su,  E. J. Sundstrom,  
 J. Talbot,  Zhen Tao,  J. Thirman,  Hung-Yi Tsai,  T. Tsuchimochi,  
 N. M. Tubman,  C. Utku,  S. P. Veccham,  O. Vydrov,  Rahel Weiss,  
 J. Wenzel,  Jonathan Wong,  J. Witte,  H. Wu,  Yanze Wu,  A. Yamada,  
 Chou-Hsun Yang,  Kun Yao,  S. Yeganeh,  S. R. Yost,  Qi Yu,  A. Zech,  
 F. Zeller,  Chongxiao Zhao,  Igor Ying Zhang,  Xing Zhang,  Yu Zhang,  
 D. Zuev,  A. Aspuru-Guzik,  A. T. Bell,  N. A. Besley,  K. B. Bravaya,  
 B. R. Brooks,  D. Casanova,  Jeng-Da Chai,  Hsing-Ta Chen,  S. Coriani,  
 C. J. Cramer,  A. E. DePrince, III,  R. A. DiStasio Jr.,  A. Dreuw,  
 B. D. Dunietz,  T. R. Furlani,  W. A. Goddard III,  S. Grimme,  
 S. Hammes-Schiffer,  T. Head-Gordon,  W. J. Hehre,  Chao-Ping Hsu,  
 T.-C. Jagau,  Yousung Jung,  A. Klamt,  Jing Kong,  D. S. Lambrecht,  
 Xiangyuan Li,  WanZhen Liang,  N. J. Mayhall,  C. W. McCurdy,  J. B. Neaton,  
 T. Neudecker,  C. Ochsenfeld,  J. A. Parkhill,  R. Peverati,  
 V. A. Rassolov,  Haisheng Ren,  Yihan Shao,  L. V. Slipchenko,  
 R. P. Steele,  J. E. Subotnik,  A. J. W. Thom,  A. Tkatchenko,  
 D. G. Truhlar,  T. Van Voorhis,  Fan Wang,  T. A. Wesolowski,  K. B. Whaley,  
 H. L. Woodcock III,  P. M. Zimmerman,  S. Faraji,  P. M. W. Gill,  
 M. Head-Gordon,  J. M. Herbert,  A. I. Krylov

 Contributors to earlier versions of Q-Chem not listed above: 
 R. D. Adamson,  B. Austin,  R. Baer,  J. Baker,  G. J. O. Beran,  
 K. Brandhorst,  S. T. Brown,  E. F. C. Byrd,  Arup K. Chakraborty,  
 G. K. L. Chan,  Chun-Min Chang,  Yunqing Chen,  C.-L. Cheng,  
 Siu Hung Chien,  D. M. Chipman,  D. L. Crittenden,  H. Dachsel,  
 R. J. Doerksen,  A. D. Dutoi,  R. G. Edgar,  J. Fosso-Tande,  
 L. Fusti-Molnar,  D. Ghosh,  A. Ghysels,  A. Golubeva-Zadorozhnaya,  
 J. Gonthier,  M. S. Gordon,  S. R. Gwaltney,  G. Hawkins,  J. E. Herr,  
 A. Heyden,  S. Hirata,  E. G. Hohenstein,  G. Kedziora,  F. J. Keil,  
 C. Kelley,  Jihan Kim,  R. A. King,  R. Z. Khaliullin,  P. P. Korambath,  
 W. Kurlancheek,  A. Laurent,  A. M. Lee,  M. S. Lee,  S. V. Levchenko,  
 Ching Yeh Lin,  D. Liotard,  E. Livshits,  R. C. Lochan,  I. Lotan,  
 L. A. Martinez-Martinez,  P. E. Maslen,  N. Nair,  D. P. O'Neill,  
 D. Neuhauser,  E. Neuscamman,  C. M. Oana,  R. Olivares-Amaya,  R. Olson,  
 T. M. Perrine,  B. Peters,  P. A. Pieniazek,  A. Prociuk,  Y. M. Rhee,  
 J. Ritchie,  M. A. Rohrdanz,  E. Rosta,  N. J. Russ,  H. F. Schaefer III,  
 M. W. Schmidt,  N. E. Schultz,  S. Sharma,  N. Shenvi,  C. D. Sherrill,  
 A. C. Simmonett,  A. Sodt,  T. Stein,  D. Stuck,  K. S. Thanthiriwatte,  
 V. Vanovschi,  L. Vogt,  Tao Wang,  A. Warshel,  M. A. Watson,  
 C. F. Williams,  Q. Wu,  X. Xu,  Jun Yang,  W. Zhang,  Yan Zhao

   Please cite Q-Chem as follows:
  "Software for the frontiers of quantum chemistry:
   An overview of developments in the Q-Chem 5 package"
   J. Chem. Phys. 155, 084801 (2021)
   https://doi.org/10.1063/5.0055522 (open access)

 Q-Chem 6.2.0 for Intel X86 EM64T Linux

 Parts of Q-Chem use Armadillo 9.900.5 (Nocturnal Misbehaviour).
 http://arma.sourceforge.net/

 Q-Chem begins on Fri Jan 31 00:39:12 2025  

 Host: 
0

     Scratch files written to /data/brussel/103/vsc10365/activedata/TDDFTAnthocyanidines/qchem1346768//
 May224 |scratch|qcdevops|jenkins|workspace|build_RNUM -1
 Processing $rem in /apps/brussel/RL8/skylake/software/Q-Chem/6.2.0/config/preferences:
 Processing $rem in /user/brussel/103/vsc10365/.qchemrc:
 Symmetry turned off for PCM/SM12/SMD calculation

 Checking the input file for inconsistencies... 	...done.

--------------------------------------------------------------
User input:
--------------------------------------------------------------
$comment
TDDFT calculation of peonidin Q4 structure
nprocs=16
mem=64gb
$end

$molecule
0 1
C   -4.9573357    1.1409292   -0.2814374
C   -4.8546131   -0.1038617    0.4499564
C   -3.6865075   -0.5179838    1.0099864
C   -2.4983616    0.2794171    0.8980331
C   -2.6149437    1.5032927    0.1740061
C   -3.7757118    1.9376950   -0.3995148
C   -1.2756108   -0.0477548    1.4371716
C   -0.1628693    0.7899667    1.2883096
C   -0.2887715    1.9743864    0.5810887
O   -1.5006345    2.2742269    0.0490554
C    0.7074343    3.0044311    0.3339447
C    0.2787267    4.2800500   -0.0939164
C    1.1931473    5.2850166   -0.3359198
C    2.5690436    5.0372309   -0.1676820
C    2.9975786    3.7856091    0.2423685
C    2.0815692    2.7765153    0.4979227
O   -6.0636848    1.4987504   -0.7931150
H   -5.7462725   -0.7130440    0.5418566
O   -3.5533287   -1.6846449    1.7016104
H   -3.8098162    2.8743630   -0.9389546
H   -1.1570681   -0.9643033    2.0024666
O    1.0364509    0.4628493    1.8566317
H   -0.7739038    4.4750766   -0.2205396
O    0.8888661    6.5546626   -0.7329897
O    3.4836964    6.0186849   -0.4046374
H    2.4433754    1.8109232    0.8071656
H   -4.4008959   -2.1528479    1.7187088
H    0.9508658   -0.3743634    2.3346950
H    3.0193880    6.8206787   -0.6921022
C   -0.4871202    6.8966382   -0.9311340
H   -0.4914812    7.9397430   -1.2364446
H   -1.0524946    6.7825677   -0.0042936
H   -0.9301303    6.2811932   -1.7161745
H    4.0585835    3.6076163    0.3604577
$end

$rem
BASIS  =  def2-ma-TZVP
MEM_STATIC  =  2000
MEM_TOTAL  =  64000
METHOD  =  CAM-B3LYP
SOLVENT_METHOD = pcm
SYMMETRY_IGNORE  =  1
CIS_N_ROOTS = 7
CIS_SINGLETS = true
CIS_TRIPLETS = true
CISTR_PRINT = true
RPA = true
PRINT_ORBITALS = true
SCF_PRINT = 1
SCF_FINAL_PRINT = 2
PRINT_GENERAL_BASIS = true
CISTR_PRINT = true
PRINT_RADII_GYRE = true
MULTIPOLE_ORDER = 5
CIS_AMPL_PRINT = 5
CIS_AMPL_ANAL = true
STATE_ANALYSIS = true
$end

$pcm
Theory   CPCM
Method   SWIG
Solver   Inversion
Radii    Bondi
$end

$solvent
Dielectric         78.39
OpticalDielectric  1.777849
$end


--------------------------------------------------------------
 ----------------------------------------------------------------
             Standard Nuclear Orientation (Angstroms)
    I     Atom           X                Y                Z
 ----------------------------------------------------------------
    1      C      -4.9573357000     1.1409292000    -0.2814374000
    2      C      -4.8546131000    -0.1038617000     0.4499564000
    3      C      -3.6865075000    -0.5179838000     1.0099864000
    4      C      -2.4983616000     0.2794171000     0.8980331000
    5      C      -2.6149437000     1.5032927000     0.1740061000
    6      C      -3.7757118000     1.9376950000    -0.3995148000
    7      C      -1.2756108000    -0.0477548000     1.4371716000
    8      C      -0.1628693000     0.7899667000     1.2883096000
    9      C      -0.2887715000     1.9743864000     0.5810887000
   10      O      -1.5006345000     2.2742269000     0.0490554000
   11      C       0.7074343000     3.0044311000     0.3339447000
   12      C       0.2787267000     4.2800500000    -0.0939164000
   13      C       1.1931473000     5.2850166000    -0.3359198000
   14      C       2.5690436000     5.0372309000    -0.1676820000
   15      C       2.9975786000     3.7856091000     0.2423685000
   16      C       2.0815692000     2.7765153000     0.4979227000
   17      O      -6.0636848000     1.4987504000    -0.7931150000
   18      H      -5.7462725000    -0.7130440000     0.5418566000
   19      O      -3.5533287000    -1.6846449000     1.7016104000
   20      H      -3.8098162000     2.8743630000    -0.9389546000
   21      H      -1.1570681000    -0.9643033000     2.0024666000
   22      O       1.0364509000     0.4628493000     1.8566317000
   23      H      -0.7739038000     4.4750766000    -0.2205396000
   24      O       0.8888661000     6.5546626000    -0.7329897000
   25      O       3.4836964000     6.0186849000    -0.4046374000
   26      H       2.4433754000     1.8109232000     0.8071656000
   27      H      -4.4008959000    -2.1528479000     1.7187088000
   28      H       0.9508658000    -0.3743634000     2.3346950000
   29      H       3.0193880000     6.8206787000    -0.6921022000
   30      C      -0.4871202000     6.8966382000    -0.9311340000
   31      H      -0.4914812000     7.9397430000    -1.2364446000
   32      H      -1.0524946000     6.7825677000    -0.0042936000
   33      H      -0.9301303000     6.2811932000    -1.7161745000
   34      H       4.0585835000     3.6076163000     0.3604577000
 ----------------------------------------------------------------
 Nuclear Repulsion Energy =        1701.35393507 hartrees
 There are       78 alpha and       78 beta electrons
 Requested basis set is def2-ma-TZVP
 Basis set in general basis input format:
-----------------------------------------------------------------------
$basis
C    0
S    6    1.000000
   1.35753497E+04    2.22458144E-04 
   2.03523337E+03    1.72327383E-03 
   4.63225624E+02    8.92557153E-03 
   1.31200196E+02    3.57279845E-02 
   4.28530159E+01    1.10762599E-01 
   1.55841858E+01    2.42956276E-01 
S    2    1.000000
   6.20671385E+00    4.14402634E-01 
   2.57648965E+00    2.37449687E-01 
S    1    1.000000
   5.76963394E-01    1.00000000E+00 
S    1    1.000000
   2.29728314E-01    1.00000000E+00 
S    1    1.000000
   9.51644400E-02    1.00000000E+00 
S    1    1.000000
   4.84754014E-02    1.00000000E+00 
P    4    1.000000
   3.46972322E+01    5.33336578E-03 
   7.95826228E+00    3.58641091E-02 
   2.37808269E+00    1.42158733E-01 
   8.14332082E-01    3.42704718E-01 
P    1    1.000000
   2.88875473E-01    4.64458224E-01 
P    1    1.000000
   1.00568237E-01    2.49557899E-01 
D    1    1.000000
   1.09700000E+00    1.00000000E+00 
D    1    1.000000
   3.18000000E-01    1.00000000E+00 
F    1    1.000000
   7.61000000E-01    1.00000000E+00 
****
C    0
S    6    1.000000
   1.35753497E+04    2.22458144E-04 
   2.03523337E+03    1.72327383E-03 
   4.63225624E+02    8.92557153E-03 
   1.31200196E+02    3.57279845E-02 
   4.28530159E+01    1.10762599E-01 
   1.55841858E+01    2.42956276E-01 
S    2    1.000000
   6.20671385E+00    4.14402634E-01 
   2.57648965E+00    2.37449687E-01 
S    1    1.000000
   5.76963394E-01    1.00000000E+00 
S    1    1.000000
   2.29728314E-01    1.00000000E+00 
S    1    1.000000
   9.51644400E-02    1.00000000E+00 
S    1    1.000000
   4.84754014E-02    1.00000000E+00 
P    4    1.000000
   3.46972322E+01    5.33336578E-03 
   7.95826228E+00    3.58641091E-02 
   2.37808269E+00    1.42158733E-01 
   8.14332082E-01    3.42704718E-01 
P    1    1.000000
   2.88875473E-01    4.64458224E-01 
P    1    1.000000
   1.00568237E-01    2.49557899E-01 
D    1    1.000000
   1.09700000E+00    1.00000000E+00 
D    1    1.000000
   3.18000000E-01    1.00000000E+00 
F    1    1.000000
   7.61000000E-01    1.00000000E+00 
****
C    0
S    6    1.000000
   1.35753497E+04    2.22458144E-04 
   2.03523337E+03    1.72327383E-03 
   4.63225624E+02    8.92557153E-03 
   1.31200196E+02    3.57279845E-02 
   4.28530159E+01    1.10762599E-01 
   1.55841858E+01    2.42956276E-01 
S    2    1.000000
   6.20671385E+00    4.14402634E-01 
   2.57648965E+00    2.37449687E-01 
S    1    1.000000
   5.76963394E-01    1.00000000E+00 
S    1    1.000000
   2.29728314E-01    1.00000000E+00 
S    1    1.000000
   9.51644400E-02    1.00000000E+00 
S    1    1.000000
   4.84754014E-02    1.00000000E+00 
P    4    1.000000
   3.46972322E+01    5.33336578E-03 
   7.95826228E+00    3.58641091E-02 
   2.37808269E+00    1.42158733E-01 
   8.14332082E-01    3.42704718E-01 
P    1    1.000000
   2.88875473E-01    4.64458224E-01 
P    1    1.000000
   1.00568237E-01    2.49557899E-01 
D    1    1.000000
   1.09700000E+00    1.00000000E+00 
D    1    1.000000
   3.18000000E-01    1.00000000E+00 
F    1    1.000000
   7.61000000E-01    1.00000000E+00 
****
C    0
S    6    1.000000
   1.35753497E+04    2.22458144E-04 
   2.03523337E+03    1.72327383E-03 
   4.63225624E+02    8.92557153E-03 
   1.31200196E+02    3.57279845E-02 
   4.28530159E+01    1.10762599E-01 
   1.55841858E+01    2.42956276E-01 
S    2    1.000000
   6.20671385E+00    4.14402634E-01 
   2.57648965E+00    2.37449687E-01 
S    1    1.000000
   5.76963394E-01    1.00000000E+00 
S    1    1.000000
   2.29728314E-01    1.00000000E+00 
S    1    1.000000
   9.51644400E-02    1.00000000E+00 
S    1    1.000000
   4.84754014E-02    1.00000000E+00 
P    4    1.000000
   3.46972322E+01    5.33336578E-03 
   7.95826228E+00    3.58641091E-02 
   2.37808269E+00    1.42158733E-01 
   8.14332082E-01    3.42704718E-01 
P    1    1.000000
   2.88875473E-01    4.64458224E-01 
P    1    1.000000
   1.00568237E-01    2.49557899E-01 
D    1    1.000000
   1.09700000E+00    1.00000000E+00 
D    1    1.000000
   3.18000000E-01    1.00000000E+00 
F    1    1.000000
   7.61000000E-01    1.00000000E+00 
****
C    0
S    6    1.000000
   1.35753497E+04    2.22458144E-04 
   2.03523337E+03    1.72327383E-03 
   4.63225624E+02    8.92557153E-03 
   1.31200196E+02    3.57279845E-02 
   4.28530159E+01    1.10762599E-01 
   1.55841858E+01    2.42956276E-01 
S    2    1.000000
   6.20671385E+00    4.14402634E-01 
   2.57648965E+00    2.37449687E-01 
S    1    1.000000
   5.76963394E-01    1.00000000E+00 
S    1    1.000000
   2.29728314E-01    1.00000000E+00 
S    1    1.000000
   9.51644400E-02    1.00000000E+00 
S    1    1.000000
   4.84754014E-02    1.00000000E+00 
P    4    1.000000
   3.46972322E+01    5.33336578E-03 
   7.95826228E+00    3.58641091E-02 
   2.37808269E+00    1.42158733E-01 
   8.14332082E-01    3.42704718E-01 
P    1    1.000000
   2.88875473E-01    4.64458224E-01 
P    1    1.000000
   1.00568237E-01    2.49557899E-01 
D    1    1.000000
   1.09700000E+00    1.00000000E+00 
D    1    1.000000
   3.18000000E-01    1.00000000E+00 
F    1    1.000000
   7.61000000E-01    1.00000000E+00 
****
C    0
S    6    1.000000
   1.35753497E+04    2.22458144E-04 
   2.03523337E+03    1.72327383E-03 
   4.63225624E+02    8.92557153E-03 
   1.31200196E+02    3.57279845E-02 
   4.28530159E+01    1.10762599E-01 
   1.55841858E+01    2.42956276E-01 
S    2    1.000000
   6.20671385E+00    4.14402634E-01 
   2.57648965E+00    2.37449687E-01 
S    1    1.000000
   5.76963394E-01    1.00000000E+00 
S    1    1.000000
   2.29728314E-01    1.00000000E+00 
S    1    1.000000
   9.51644400E-02    1.00000000E+00 
S    1    1.000000
   4.84754014E-02    1.00000000E+00 
P    4    1.000000
   3.46972322E+01    5.33336578E-03 
   7.95826228E+00    3.58641091E-02 
   2.37808269E+00    1.42158733E-01 
   8.14332082E-01    3.42704718E-01 
P    1    1.000000
   2.88875473E-01    4.64458224E-01 
P    1    1.000000
   1.00568237E-01    2.49557899E-01 
D    1    1.000000
   1.09700000E+00    1.00000000E+00 
D    1    1.000000
   3.18000000E-01    1.00000000E+00 
F    1    1.000000
   7.61000000E-01    1.00000000E+00 
****
C    0
S    6    1.000000
   1.35753497E+04    2.22458144E-04 
   2.03523337E+03    1.72327383E-03 
   4.63225624E+02    8.92557153E-03 
   1.31200196E+02    3.57279845E-02 
   4.28530159E+01    1.10762599E-01 
   1.55841858E+01    2.42956276E-01 
S    2    1.000000
   6.20671385E+00    4.14402634E-01 
   2.57648965E+00    2.37449687E-01 
S    1    1.000000
   5.76963394E-01    1.00000000E+00 
S    1    1.000000
   2.29728314E-01    1.00000000E+00 
S    1    1.000000
   9.51644400E-02    1.00000000E+00 
S    1    1.000000
   4.84754014E-02    1.00000000E+00 
P    4    1.000000
   3.46972322E+01    5.33336578E-03 
   7.95826228E+00    3.58641091E-02 
   2.37808269E+00    1.42158733E-01 
   8.14332082E-01    3.42704718E-01 
P    1    1.000000
   2.88875473E-01    4.64458224E-01 
P    1    1.000000
   1.00568237E-01    2.49557899E-01 
D    1    1.000000
   1.09700000E+00    1.00000000E+00 
D    1    1.000000
   3.18000000E-01    1.00000000E+00 
F    1    1.000000
   7.61000000E-01    1.00000000E+00 
****
C    0
S    6    1.000000
   1.35753497E+04    2.22458144E-04 
   2.03523337E+03    1.72327383E-03 
   4.63225624E+02    8.92557153E-03 
   1.31200196E+02    3.57279845E-02 
   4.28530159E+01    1.10762599E-01 
   1.55841858E+01    2.42956276E-01 
S    2    1.000000
   6.20671385E+00    4.14402634E-01 
   2.57648965E+00    2.37449687E-01 
S    1    1.000000
   5.76963394E-01    1.00000000E+00 
S    1    1.000000
   2.29728314E-01    1.00000000E+00 
S    1    1.000000
   9.51644400E-02    1.00000000E+00 
S    1    1.000000
   4.84754014E-02    1.00000000E+00 
P    4    1.000000
   3.46972322E+01    5.33336578E-03 
   7.95826228E+00    3.58641091E-02 
   2.37808269E+00    1.42158733E-01 
   8.14332082E-01    3.42704718E-01 
P    1    1.000000
   2.88875473E-01    4.64458224E-01 
P    1    1.000000
   1.00568237E-01    2.49557899E-01 
D    1    1.000000
   1.09700000E+00    1.00000000E+00 
D    1    1.000000
   3.18000000E-01    1.00000000E+00 
F    1    1.000000
   7.61000000E-01    1.00000000E+00 
****
C    0
S    6    1.000000
   1.35753497E+04    2.22458144E-04 
   2.03523337E+03    1.72327383E-03 
   4.63225624E+02    8.92557153E-03 
   1.31200196E+02    3.57279845E-02 
   4.28530159E+01    1.10762599E-01 
   1.55841858E+01    2.42956276E-01 
S    2    1.000000
   6.20671385E+00    4.14402634E-01 
   2.57648965E+00    2.37449687E-01 
S    1    1.000000
   5.76963394E-01    1.00000000E+00 
S    1    1.000000
   2.29728314E-01    1.00000000E+00 
S    1    1.000000
   9.51644400E-02    1.00000000E+00 
S    1    1.000000
   4.84754014E-02    1.00000000E+00 
P    4    1.000000
   3.46972322E+01    5.33336578E-03 
   7.95826228E+00    3.58641091E-02 
   2.37808269E+00    1.42158733E-01 
   8.14332082E-01    3.42704718E-01 
P    1    1.000000
   2.88875473E-01    4.64458224E-01 
P    1    1.000000
   1.00568237E-01    2.49557899E-01 
D    1    1.000000
   1.09700000E+00    1.00000000E+00 
D    1    1.000000
   3.18000000E-01    1.00000000E+00 
F    1    1.000000
   7.61000000E-01    1.00000000E+00 
****
O    0
S    6    1.000000
   2.70323826E+04    2.17263025E-04 
   4.05238714E+03    1.68386622E-03 
   9.22327227E+02    8.73956163E-03 
   2.61240710E+02    3.52399688E-02 
   8.53546414E+01    1.11535191E-01 
   3.10350352E+01    2.55889540E-01 
S    2    1.000000
   1.22608607E+01    3.97687309E-01 
   4.99870760E+00    2.46278494E-01 
S    1    1.000000
   1.17031082E+00    1.00000000E+00 
S    1    1.000000
   4.64747410E-01    1.00000000E+00 
S    1    1.000000
   1.85045364E-01    1.00000000E+00 
S    1    1.000000
   7.02880263E-02    1.00000000E+00 
P    4    1.000000
   6.32749548E+01    6.06851034E-03 
   1.46270494E+01    4.19125758E-02 
   4.45012235E+00    1.61538411E-01 
   1.52757996E+00    3.57069513E-01 
P    1    1.000000
   5.29351179E-01    4.47942075E-01 
P    1    1.000000
   1.74784213E-01    2.44460697E-01 
P    1    1.000000
   5.11127457E-02    1.00000000E+00 
D    1    1.000000
   2.31400000E+00    1.00000000E+00 
D    1    1.000000
   6.45000000E-01    1.00000000E+00 
F    1    1.000000
   1.42800000E+00    1.00000000E+00 
****
C    0
S    6    1.000000
   1.35753497E+04    2.22458144E-04 
   2.03523337E+03    1.72327383E-03 
   4.63225624E+02    8.92557153E-03 
   1.31200196E+02    3.57279845E-02 
   4.28530159E+01    1.10762599E-01 
   1.55841858E+01    2.42956276E-01 
S    2    1.000000
   6.20671385E+00    4.14402634E-01 
   2.57648965E+00    2.37449687E-01 
S    1    1.000000
   5.76963394E-01    1.00000000E+00 
S    1    1.000000
   2.29728314E-01    1.00000000E+00 
S    1    1.000000
   9.51644400E-02    1.00000000E+00 
S    1    1.000000
   4.84754014E-02    1.00000000E+00 
P    4    1.000000
   3.46972322E+01    5.33336578E-03 
   7.95826228E+00    3.58641091E-02 
   2.37808269E+00    1.42158733E-01 
   8.14332082E-01    3.42704718E-01 
P    1    1.000000
   2.88875473E-01    4.64458224E-01 
P    1    1.000000
   1.00568237E-01    2.49557899E-01 
D    1    1.000000
   1.09700000E+00    1.00000000E+00 
D    1    1.000000
   3.18000000E-01    1.00000000E+00 
F    1    1.000000
   7.61000000E-01    1.00000000E+00 
****
C    0
S    6    1.000000
   1.35753497E+04    2.22458144E-04 
   2.03523337E+03    1.72327383E-03 
   4.63225624E+02    8.92557153E-03 
   1.31200196E+02    3.57279845E-02 
   4.28530159E+01    1.10762599E-01 
   1.55841858E+01    2.42956276E-01 
S    2    1.000000
   6.20671385E+00    4.14402634E-01 
   2.57648965E+00    2.37449687E-01 
S    1    1.000000
   5.76963394E-01    1.00000000E+00 
S    1    1.000000
   2.29728314E-01    1.00000000E+00 
S    1    1.000000
   9.51644400E-02    1.00000000E+00 
S    1    1.000000
   4.84754014E-02    1.00000000E+00 
P    4    1.000000
   3.46972322E+01    5.33336578E-03 
   7.95826228E+00    3.58641091E-02 
   2.37808269E+00    1.42158733E-01 
   8.14332082E-01    3.42704718E-01 
P    1    1.000000
   2.88875473E-01    4.64458224E-01 
P    1    1.000000
   1.00568237E-01    2.49557899E-01 
D    1    1.000000
   1.09700000E+00    1.00000000E+00 
D    1    1.000000
   3.18000000E-01    1.00000000E+00 
F    1    1.000000
   7.61000000E-01    1.00000000E+00 
****
C    0
S    6    1.000000
   1.35753497E+04    2.22458144E-04 
   2.03523337E+03    1.72327383E-03 
   4.63225624E+02    8.92557153E-03 
   1.31200196E+02    3.57279845E-02 
   4.28530159E+01    1.10762599E-01 
   1.55841858E+01    2.42956276E-01 
S    2    1.000000
   6.20671385E+00    4.14402634E-01 
   2.57648965E+00    2.37449687E-01 
S    1    1.000000
   5.76963394E-01    1.00000000E+00 
S    1    1.000000
   2.29728314E-01    1.00000000E+00 
S    1    1.000000
   9.51644400E-02    1.00000000E+00 
S    1    1.000000
   4.84754014E-02    1.00000000E+00 
P    4    1.000000
   3.46972322E+01    5.33336578E-03 
   7.95826228E+00    3.58641091E-02 
   2.37808269E+00    1.42158733E-01 
   8.14332082E-01    3.42704718E-01 
P    1    1.000000
   2.88875473E-01    4.64458224E-01 
P    1    1.000000
   1.00568237E-01    2.49557899E-01 
D    1    1.000000
   1.09700000E+00    1.00000000E+00 
D    1    1.000000
   3.18000000E-01    1.00000000E+00 
F    1    1.000000
   7.61000000E-01    1.00000000E+00 
****
C    0
S    6    1.000000
   1.35753497E+04    2.22458144E-04 
   2.03523337E+03    1.72327383E-03 
   4.63225624E+02    8.92557153E-03 
   1.31200196E+02    3.57279845E-02 
   4.28530159E+01    1.10762599E-01 
   1.55841858E+01    2.42956276E-01 
S    2    1.000000
   6.20671385E+00    4.14402634E-01 
   2.57648965E+00    2.37449687E-01 
S    1    1.000000
   5.76963394E-01    1.00000000E+00 
S    1    1.000000
   2.29728314E-01    1.00000000E+00 
S    1    1.000000
   9.51644400E-02    1.00000000E+00 
S    1    1.000000
   4.84754014E-02    1.00000000E+00 
P    4    1.000000
   3.46972322E+01    5.33336578E-03 
   7.95826228E+00    3.58641091E-02 
   2.37808269E+00    1.42158733E-01 
   8.14332082E-01    3.42704718E-01 
P    1    1.000000
   2.88875473E-01    4.64458224E-01 
P    1    1.000000
   1.00568237E-01    2.49557899E-01 
D    1    1.000000
   1.09700000E+00    1.00000000E+00 
D    1    1.000000
   3.18000000E-01    1.00000000E+00 
F    1    1.000000
   7.61000000E-01    1.00000000E+00 
****
C    0
S    6    1.000000
   1.35753497E+04    2.22458144E-04 
   2.03523337E+03    1.72327383E-03 
   4.63225624E+02    8.92557153E-03 
   1.31200196E+02    3.57279845E-02 
   4.28530159E+01    1.10762599E-01 
   1.55841858E+01    2.42956276E-01 
S    2    1.000000
   6.20671385E+00    4.14402634E-01 
   2.57648965E+00    2.37449687E-01 
S    1    1.000000
   5.76963394E-01    1.00000000E+00 
S    1    1.000000
   2.29728314E-01    1.00000000E+00 
S    1    1.000000
   9.51644400E-02    1.00000000E+00 
S    1    1.000000
   4.84754014E-02    1.00000000E+00 
P    4    1.000000
   3.46972322E+01    5.33336578E-03 
   7.95826228E+00    3.58641091E-02 
   2.37808269E+00    1.42158733E-01 
   8.14332082E-01    3.42704718E-01 
P    1    1.000000
   2.88875473E-01    4.64458224E-01 
P    1    1.000000
   1.00568237E-01    2.49557899E-01 
D    1    1.000000
   1.09700000E+00    1.00000000E+00 
D    1    1.000000
   3.18000000E-01    1.00000000E+00 
F    1    1.000000
   7.61000000E-01    1.00000000E+00 
****
C    0
S    6    1.000000
   1.35753497E+04    2.22458144E-04 
   2.03523337E+03    1.72327383E-03 
   4.63225624E+02    8.92557153E-03 
   1.31200196E+02    3.57279845E-02 
   4.28530159E+01    1.10762599E-01 
   1.55841858E+01    2.42956276E-01 
S    2    1.000000
   6.20671385E+00    4.14402634E-01 
   2.57648965E+00    2.37449687E-01 
S    1    1.000000
   5.76963394E-01    1.00000000E+00 
S    1    1.000000
   2.29728314E-01    1.00000000E+00 
S    1    1.000000
   9.51644400E-02    1.00000000E+00 
S    1    1.000000
   4.84754014E-02    1.00000000E+00 
P    4    1.000000
   3.46972322E+01    5.33336578E-03 
   7.95826228E+00    3.58641091E-02 
   2.37808269E+00    1.42158733E-01 
   8.14332082E-01    3.42704718E-01 
P    1    1.000000
   2.88875473E-01    4.64458224E-01 
P    1    1.000000
   1.00568237E-01    2.49557899E-01 
D    1    1.000000
   1.09700000E+00    1.00000000E+00 
D    1    1.000000
   3.18000000E-01    1.00000000E+00 
F    1    1.000000
   7.61000000E-01    1.00000000E+00 
****
O    0
S    6    1.000000
   2.70323826E+04    2.17263025E-04 
   4.05238714E+03    1.68386622E-03 
   9.22327227E+02    8.73956163E-03 
   2.61240710E+02    3.52399688E-02 
   8.53546414E+01    1.11535191E-01 
   3.10350352E+01    2.55889540E-01 
S    2    1.000000
   1.22608607E+01    3.97687309E-01 
   4.99870760E+00    2.46278494E-01 
S    1    1.000000
   1.17031082E+00    1.00000000E+00 
S    1    1.000000
   4.64747410E-01    1.00000000E+00 
S    1    1.000000
   1.85045364E-01    1.00000000E+00 
S    1    1.000000
   7.02880263E-02    1.00000000E+00 
P    4    1.000000
   6.32749548E+01    6.06851034E-03 
   1.46270494E+01    4.19125758E-02 
   4.45012235E+00    1.61538411E-01 
   1.52757996E+00    3.57069513E-01 
P    1    1.000000
   5.29351179E-01    4.47942075E-01 
P    1    1.000000
   1.74784213E-01    2.44460697E-01 
P    1    1.000000
   5.11127457E-02    1.00000000E+00 
D    1    1.000000
   2.31400000E+00    1.00000000E+00 
D    1    1.000000
   6.45000000E-01    1.00000000E+00 
F    1    1.000000
   1.42800000E+00    1.00000000E+00 
****
H    0
S    3    1.000000
   3.40613410E+01    6.02519780E-03 
   5.12357460E+00    4.50210940E-02 
   1.16466260E+00    2.01897260E-01 
S    1    1.000000
   3.27230410E-01    1.00000000E+00 
S    1    1.000000
   1.03072410E-01    1.00000000E+00 
P    1    1.000000
   8.00000000E-01    1.00000000E+00 
****
O    0
S    6    1.000000
   2.70323826E+04    2.17263025E-04 
   4.05238714E+03    1.68386622E-03 
   9.22327227E+02    8.73956163E-03 
   2.61240710E+02    3.52399688E-02 
   8.53546414E+01    1.11535191E-01 
   3.10350352E+01    2.55889540E-01 
S    2    1.000000
   1.22608607E+01    3.97687309E-01 
   4.99870760E+00    2.46278494E-01 
S    1    1.000000
   1.17031082E+00    1.00000000E+00 
S    1    1.000000
   4.64747410E-01    1.00000000E+00 
S    1    1.000000
   1.85045364E-01    1.00000000E+00 
S    1    1.000000
   7.02880263E-02    1.00000000E+00 
P    4    1.000000
   6.32749548E+01    6.06851034E-03 
   1.46270494E+01    4.19125758E-02 
   4.45012235E+00    1.61538411E-01 
   1.52757996E+00    3.57069513E-01 
P    1    1.000000
   5.29351179E-01    4.47942075E-01 
P    1    1.000000
   1.74784213E-01    2.44460697E-01 
P    1    1.000000
   5.11127457E-02    1.00000000E+00 
D    1    1.000000
   2.31400000E+00    1.00000000E+00 
D    1    1.000000
   6.45000000E-01    1.00000000E+00 
F    1    1.000000
   1.42800000E+00    1.00000000E+00 
****
H    0
S    3    1.000000
   3.40613410E+01    6.02519780E-03 
   5.12357460E+00    4.50210940E-02 
   1.16466260E+00    2.01897260E-01 
S    1    1.000000
   3.27230410E-01    1.00000000E+00 
S    1    1.000000
   1.03072410E-01    1.00000000E+00 
P    1    1.000000
   8.00000000E-01    1.00000000E+00 
****
H    0
S    3    1.000000
   3.40613410E+01    6.02519780E-03 
   5.12357460E+00    4.50210940E-02 
   1.16466260E+00    2.01897260E-01 
S    1    1.000000
   3.27230410E-01    1.00000000E+00 
S    1    1.000000
   1.03072410E-01    1.00000000E+00 
P    1    1.000000
   8.00000000E-01    1.00000000E+00 
****
O    0
S    6    1.000000
   2.70323826E+04    2.17263025E-04 
   4.05238714E+03    1.68386622E-03 
   9.22327227E+02    8.73956163E-03 
   2.61240710E+02    3.52399688E-02 
   8.53546414E+01    1.11535191E-01 
   3.10350352E+01    2.55889540E-01 
S    2    1.000000
   1.22608607E+01    3.97687309E-01 
   4.99870760E+00    2.46278494E-01 
S    1    1.000000
   1.17031082E+00    1.00000000E+00 
S    1    1.000000
   4.64747410E-01    1.00000000E+00 
S    1    1.000000
   1.85045364E-01    1.00000000E+00 
S    1    1.000000
   7.02880263E-02    1.00000000E+00 
P    4    1.000000
   6.32749548E+01    6.06851034E-03 
   1.46270494E+01    4.19125758E-02 
   4.45012235E+00    1.61538411E-01 
   1.52757996E+00    3.57069513E-01 
P    1    1.000000
   5.29351179E-01    4.47942075E-01 
P    1    1.000000
   1.74784213E-01    2.44460697E-01 
P    1    1.000000
   5.11127457E-02    1.00000000E+00 
D    1    1.000000
   2.31400000E+00    1.00000000E+00 
D    1    1.000000
   6.45000000E-01    1.00000000E+00 
F    1    1.000000
   1.42800000E+00    1.00000000E+00 
****
H    0
S    3    1.000000
   3.40613410E+01    6.02519780E-03 
   5.12357460E+00    4.50210940E-02 
   1.16466260E+00    2.01897260E-01 
S    1    1.000000
   3.27230410E-01    1.00000000E+00 
S    1    1.000000
   1.03072410E-01    1.00000000E+00 
P    1    1.000000
   8.00000000E-01    1.00000000E+00 
****
O    0
S    6    1.000000
   2.70323826E+04    2.17263025E-04 
   4.05238714E+03    1.68386622E-03 
   9.22327227E+02    8.73956163E-03 
   2.61240710E+02    3.52399688E-02 
   8.53546414E+01    1.11535191E-01 
   3.10350352E+01    2.55889540E-01 
S    2    1.000000
   1.22608607E+01    3.97687309E-01 
   4.99870760E+00    2.46278494E-01 
S    1    1.000000
   1.17031082E+00    1.00000000E+00 
S    1    1.000000
   4.64747410E-01    1.00000000E+00 
S    1    1.000000
   1.85045364E-01    1.00000000E+00 
S    1    1.000000
   7.02880263E-02    1.00000000E+00 
P    4    1.000000
   6.32749548E+01    6.06851034E-03 
   1.46270494E+01    4.19125758E-02 
   4.45012235E+00    1.61538411E-01 
   1.52757996E+00    3.57069513E-01 
P    1    1.000000
   5.29351179E-01    4.47942075E-01 
P    1    1.000000
   1.74784213E-01    2.44460697E-01 
P    1    1.000000
   5.11127457E-02    1.00000000E+00 
D    1    1.000000
   2.31400000E+00    1.00000000E+00 
D    1    1.000000
   6.45000000E-01    1.00000000E+00 
F    1    1.000000
   1.42800000E+00    1.00000000E+00 
****
O    0
S    6    1.000000
   2.70323826E+04    2.17263025E-04 
   4.05238714E+03    1.68386622E-03 
   9.22327227E+02    8.73956163E-03 
   2.61240710E+02    3.52399688E-02 
   8.53546414E+01    1.11535191E-01 
   3.10350352E+01    2.55889540E-01 
S    2    1.000000
   1.22608607E+01    3.97687309E-01 
   4.99870760E+00    2.46278494E-01 
S    1    1.000000
   1.17031082E+00    1.00000000E+00 
S    1    1.000000
   4.64747410E-01    1.00000000E+00 
S    1    1.000000
   1.85045364E-01    1.00000000E+00 
S    1    1.000000
   7.02880263E-02    1.00000000E+00 
P    4    1.000000
   6.32749548E+01    6.06851034E-03 
   1.46270494E+01    4.19125758E-02 
   4.45012235E+00    1.61538411E-01 
   1.52757996E+00    3.57069513E-01 
P    1    1.000000
   5.29351179E-01    4.47942075E-01 
P    1    1.000000
   1.74784213E-01    2.44460697E-01 
P    1    1.000000
   5.11127457E-02    1.00000000E+00 
D    1    1.000000
   2.31400000E+00    1.00000000E+00 
D    1    1.000000
   6.45000000E-01    1.00000000E+00 
F    1    1.000000
   1.42800000E+00    1.00000000E+00 
****
H    0
S    3    1.000000
   3.40613410E+01    6.02519780E-03 
   5.12357460E+00    4.50210940E-02 
   1.16466260E+00    2.01897260E-01 
S    1    1.000000
   3.27230410E-01    1.00000000E+00 
S    1    1.000000
   1.03072410E-01    1.00000000E+00 
P    1    1.000000
   8.00000000E-01    1.00000000E+00 
****
H    0
S    3    1.000000
   3.40613410E+01    6.02519780E-03 
   5.12357460E+00    4.50210940E-02 
   1.16466260E+00    2.01897260E-01 
S    1    1.000000
   3.27230410E-01    1.00000000E+00 
S    1    1.000000
   1.03072410E-01    1.00000000E+00 
P    1    1.000000
   8.00000000E-01    1.00000000E+00 
****
H    0
S    3    1.000000
   3.40613410E+01    6.02519780E-03 
   5.12357460E+00    4.50210940E-02 
   1.16466260E+00    2.01897260E-01 
S    1    1.000000
   3.27230410E-01    1.00000000E+00 
S    1    1.000000
   1.03072410E-01    1.00000000E+00 
P    1    1.000000
   8.00000000E-01    1.00000000E+00 
****
H    0
S    3    1.000000
   3.40613410E+01    6.02519780E-03 
   5.12357460E+00    4.50210940E-02 
   1.16466260E+00    2.01897260E-01 
S    1    1.000000
   3.27230410E-01    1.00000000E+00 
S    1    1.000000
   1.03072410E-01    1.00000000E+00 
P    1    1.000000
   8.00000000E-01    1.00000000E+00 
****
C    0
S    6    1.000000
   1.35753497E+04    2.22458144E-04 
   2.03523337E+03    1.72327383E-03 
   4.63225624E+02    8.92557153E-03 
   1.31200196E+02    3.57279845E-02 
   4.28530159E+01    1.10762599E-01 
   1.55841858E+01    2.42956276E-01 
S    2    1.000000
   6.20671385E+00    4.14402634E-01 
   2.57648965E+00    2.37449687E-01 
S    1    1.000000
   5.76963394E-01    1.00000000E+00 
S    1    1.000000
   2.29728314E-01    1.00000000E+00 
S    1    1.000000
   9.51644400E-02    1.00000000E+00 
S    1    1.000000
   4.84754014E-02    1.00000000E+00 
P    4    1.000000
   3.46972322E+01    5.33336578E-03 
   7.95826228E+00    3.58641091E-02 
   2.37808269E+00    1.42158733E-01 
   8.14332082E-01    3.42704718E-01 
P    1    1.000000
   2.88875473E-01    4.64458224E-01 
P    1    1.000000
   1.00568237E-01    2.49557899E-01 
D    1    1.000000
   1.09700000E+00    1.00000000E+00 
D    1    1.000000
   3.18000000E-01    1.00000000E+00 
F    1    1.000000
   7.61000000E-01    1.00000000E+00 
****
H    0
S    3    1.000000
   3.40613410E+01    6.02519780E-03 
   5.12357460E+00    4.50210940E-02 
   1.16466260E+00    2.01897260E-01 
S    1    1.000000
   3.27230410E-01    1.00000000E+00 
S    1    1.000000
   1.03072410E-01    1.00000000E+00 
P    1    1.000000
   8.00000000E-01    1.00000000E+00 
****
H    0
S    3    1.000000
   3.40613410E+01    6.02519780E-03 
   5.12357460E+00    4.50210940E-02 
   1.16466260E+00    2.01897260E-01 
S    1    1.000000
   3.27230410E-01    1.00000000E+00 
S    1    1.000000
   1.03072410E-01    1.00000000E+00 
P    1    1.000000
   8.00000000E-01    1.00000000E+00 
****
H    0
S    3    1.000000
   3.40613410E+01    6.02519780E-03 
   5.12357460E+00    4.50210940E-02 
   1.16466260E+00    2.01897260E-01 
S    1    1.000000
   3.27230410E-01    1.00000000E+00 
S    1    1.000000
   1.03072410E-01    1.00000000E+00 
P    1    1.000000
   8.00000000E-01    1.00000000E+00 
****
H    0
S    3    1.000000
   3.40613410E+01    6.02519780E-03 
   5.12357460E+00    4.50210940E-02 
   1.16466260E+00    2.01897260E-01 
S    1    1.000000
   3.27230410E-01    1.00000000E+00 
S    1    1.000000
   1.03072410E-01    1.00000000E+00 
P    1    1.000000
   8.00000000E-01    1.00000000E+00 
****
$end
-----------------------------------------------------------------------
 There are 318 shells and 794 basis functions

 Total QAlloc Memory Limit  64000 MB
 Mega-Array Size      1956 MB
 MEM_STATIC part      2000 MB

 User-specified dielectric constants (eps_0 = 78.39, eps_inf = 1.78)
 Using C-PCM dielectric factor f(eps) = (eps-1)/eps = 0.987243
 Static dielectric constant eps = 78.39
 Discretize the solute cavity surface with Lebedev spheres
	Using 110 Lebedev grid points for each H atom
	Using 194 Lebedev grid points for other atoms
	Atomic van der Waals radii (Bondi set) will be scaled by 1.20
 Using smooth SwiG surface discretization
 Remove points where switching function is < 1.0e-08
 Keep 2287 surface tesserae and discard 3301 interior tesserae
 Molecular Surface Area = 317.137 Angst**2

 A cutoff of  1.0D-12 yielded  36005 shell pairs
 There are    210653 function pairs (    266869 Cartesian)
 Smallest overlap matrix eigenvalue = 4.37E-06

 Scale SEOQF with 1.000000e-02/1.000000e-02/1.000000e-01

 Standard Electronic Orientation quadrupole field applied
 Nucleus-field energy     =     0.0000000048 hartrees
 Guess from superposition of atomic densities
 Warning:  Energy on first SCF cycle will be non-variational
 SAD guess density has 156.000000 electrons

 -----------------------------------------------------------------------
  General SCF calculation program by
  Eric Jon Sundstrom, Paul Horn, Yuezhi Mao, Dmitri Zuev, Alec White,
  David Stuck, Shaama M.S., Shane Yost, Joonho Lee, David Small,
  Daniel Levine, Susi Lehtola, Hugh Burton, Evgeny Epifanovsky,
  Bang C. Huynh
 -----------------------------------------------------------------------
 Exchange:     0.1900 Hartree-Fock + 0.3500 B88 + 0.4600 muB88 + LR-HF
 Correlation:  0.1900 VWN5 + 0.8100 LYP
 Using SG-1 standard quadrature grid
 using 16 threads for integral computing
 -------------------------------------------------------
 OpenMP Integral computing Module                
 Release: version 1.0, May 2013, Q-Chem Inc. Pittsburgh 
 -------------------------------------------------------
 C-PCM solvent model [f = (eps-1)/eps], solve by matrix inversion
 DFT Correlation          Energy =  -6.33914396473354
 DFT Exchange             Energy = -96.74756367100932
 HF Exchange              Energy = -39.83009664590222
 One-Electron             Energy = -4822.90042852644001
 SCRF wf-dependent energy Energy =   0.00000000000000
 Total Coulomb            Energy = 2189.75636109386369
 Nuclear repulsion Energy = 1701.35393507821891
 A restricted SCF calculation will be
 performed using DIIS
 SCF converges when DIIS error is below 1.0e-08
 DFT Correlation          Energy =  -6.33914396473354
 DFT Exchange             Energy = -96.74756367100932
 HF Exchange              Energy = -39.83009664590222
 One-Electron             Energy = -4822.90042852644001
 SCRF wf-dependent energy Energy =   0.00000000000000
 Total Coulomb            Energy = 2189.75636109386369
 ---------------------------------------
  Cycle       Energy         DIIS error
 ---------------------------------------
 DFT Correlation          Energy =  -6.42470680783275
 DFT Exchange             Energy = -98.83476103057485
 HF Exchange              Energy = -38.45008361257335
 One-Electron             Energy = -4842.04441881011826
 SCRF wf-dependent energy Energy =  -1.55495101047336
 Total Coulomb            Energy = 2218.07107068371715
 Nuclear repulsion Energy = 1701.35393507821891
    1   -1074.7069366360      2.05e-02  
 DFT Correlation          Energy =  -6.36558009911700
 DFT Exchange             Energy = -97.14313688717543
 HF Exchange              Energy = -37.97619460205147
 One-Electron             Energy = -4831.20152996224533
 SCRF wf-dependent energy Energy =   0.77362308606371
 Total Coulomb            Energy = 2202.84249358412262
 Nuclear repulsion Energy = 1701.35393507821891
    2   -1067.8839155096      2.18e-03  
 DFT Correlation          Energy =  -6.39148076081076
 DFT Exchange             Energy = -97.94059808895653
 HF Exchange              Energy = -38.22005069617322
 One-Electron             Energy = -4832.80532069978199
 SCRF wf-dependent energy Energy =  -1.38264728167564
 Total Coulomb            Energy = 2207.20555605339587
 Nuclear repulsion Energy = 1701.35393507821891
    3   -1067.7163898022      2.84e-03  
 DFT Correlation          Energy =  -6.39422089327053
 DFT Exchange             Energy = -97.99279369002699
 HF Exchange              Energy = -38.23332196034212
 One-Electron             Energy = -4835.23999579985139
 SCRF wf-dependent energy Energy =  -0.83570697574601
 Total Coulomb            Energy = 2209.14506771063270
 Nuclear repulsion Energy = 1701.35393507821891
    4   -1068.1806063958      5.42e-04  
 DFT Correlation          Energy =  -6.39381948852127
 DFT Exchange             Energy = -97.97953496422635
 HF Exchange              Energy = -38.23081789018846
 One-Electron             Energy = -4835.16907930029538
 SCRF wf-dependent energy Energy =  -0.82800369998722
 Total Coulomb            Energy = 2209.04830760743516
 Nuclear repulsion Energy = 1701.35393507821891
    5   -1068.1970365304      1.87e-04  
 DFT Correlation          Energy =  -6.39353336766608
 DFT Exchange             Energy = -97.97647063203597
 HF Exchange              Energy = -38.23088684930950
 One-Electron             Energy = -4834.95645616986712
 SCRF wf-dependent energy Energy =  -0.86355551692805
 Total Coulomb            Energy = 2208.86768306211752
 Nuclear repulsion Energy = 1701.35393507821891
    6   -1068.1990126576      5.98e-05  
 DFT Correlation          Energy =  -6.39353582793898
 DFT Exchange             Energy = -97.97593392780500
 HF Exchange              Energy = -38.23103453903060
 One-Electron             Energy = -4834.98587449770002
 SCRF wf-dependent energy Energy =  -0.85094387777849
 Total Coulomb            Energy = 2208.88406851210311
 Nuclear repulsion Energy = 1701.35393507821891
    7   -1068.1992843955      1.56e-05  
 DFT Correlation          Energy =  -6.39359080628231
 DFT Exchange             Energy = -97.97729894507647
 HF Exchange              Energy = -38.23154559993778
 One-Electron             Energy = -4835.01553935343600
 SCRF wf-dependent energy Energy =  -0.84681138392671
 Total Coulomb            Energy = 2208.91151989541595
 Nuclear repulsion Energy = 1701.35393507821891
    8   -1068.1993190799      7.41e-06  
 DFT Correlation          Energy =  -6.39358660955816
 DFT Exchange             Energy = -97.97732289411717
 HF Exchange              Energy = -38.23165176856956
 One-Electron             Energy = -4835.02058315416889
 SCRF wf-dependent energy Energy =  -0.84304859082408
 Total Coulomb            Energy = 2208.91292217881391
 Nuclear repulsion Energy = 1701.35393507821891
    9   -1068.1993311150      3.72e-06  
 DFT Correlation          Energy =  -6.39358062771578
 DFT Exchange             Energy = -97.97712085596196
 HF Exchange              Energy = -38.23161838409876
 One-Electron             Energy = -4835.01849689195478
 SCRF wf-dependent energy Energy =  -0.84271841149121
 Total Coulomb            Energy = 2208.91026360247361
 Nuclear repulsion Energy = 1701.35393507821891
   10   -1068.1993357602      1.71e-06  
 DFT Correlation          Energy =  -6.39358556280028
 DFT Exchange             Energy = -97.97728256761621
 HF Exchange              Energy = -38.23166239691614
 One-Electron             Energy = -4835.02277025251533
 SCRF wf-dependent energy Energy =  -0.84161573791221
 Total Coulomb            Energy = 2208.91364477056413
 Nuclear repulsion Energy = 1701.35393507821891
   11   -1068.1993364905      6.77e-07  
 DFT Correlation          Energy =  -6.39358613264012
 DFT Exchange             Energy = -97.97727145312351
 HF Exchange              Energy = -38.23165934168571
 One-Electron             Energy = -4835.02338109287757
 SCRF wf-dependent energy Energy =  -0.84136083566159
 Total Coulomb            Energy = 2208.91398707466260
 Nuclear repulsion Energy = 1701.35393507821891
   12   -1068.1993366690      4.16e-07  
 DFT Correlation          Energy =  -6.39358582809893
 DFT Exchange             Energy = -97.97727367326900
 HF Exchange              Energy = -38.23165886756842
 One-Electron             Energy = -4835.02330052889101
 SCRF wf-dependent energy Energy =  -0.84132474276112
 Total Coulomb            Energy = 2208.91387185500389
 Nuclear repulsion Energy = 1701.35393507821891
   13   -1068.1993367031      1.42e-07  
 DFT Correlation          Energy =  -6.39358585325991
 DFT Exchange             Energy = -97.97727218706788
 HF Exchange              Energy = -38.23165810107422
 One-Electron             Energy = -4835.02334304490796
 SCRF wf-dependent energy Energy =  -0.84130545248695
 Total Coulomb            Energy = 2208.91389285326977
 Nuclear repulsion Energy = 1701.35393507821891
   14   -1068.1993367074      3.93e-08  
 DFT Correlation          Energy =  -6.39358588670593
 DFT Exchange             Energy = -97.97727317722355
 HF Exchange              Energy = -38.23165832089582
 One-Electron             Energy = -4835.02337555913709
 SCRF wf-dependent energy Energy =  -0.84129780305807
 Total Coulomb            Energy = 2208.91391896163714
 Nuclear repulsion Energy = 1701.35393507821891
   15   -1068.1993367073      1.99e-08  
   16   -1068.1993367072      5.69e-09  Convergence criterion met
 ---------------------------------------
 DFT Correlation          Energy =  -6.39358588670593
 DFT Exchange             Energy = -97.97727317722355
 HF Exchange              Energy = -38.23165832089582
 One-Electron             Energy = -4835.02337555913709
 SCRF wf-dependent energy Energy =  -0.84129780305807
 Total Coulomb            Energy = 2208.91391896163714
 Final Alpha MO Eigenvalues
            1           2           3           4           5           6
    1 -19.2941999 -19.2453045 -19.2451840 -19.2442439 -19.2415187 -19.1538010
            7           8           9          10          11          12
    1 -10.3570938 -10.3449319 -10.3361702 -10.3359876 -10.3251833 -10.3212484
           13          14          15          16          17          18
    1 -10.3203260 -10.2993140 -10.2954809 -10.2848525 -10.2780684 -10.2629619
           19          20          21          22          23          24
    1 -10.2603420 -10.2552806 -10.2453048 -10.2364613  -1.2201288  -1.1712282
           25          26          27          28          29          30
    1  -1.1603419  -1.1592554  -1.1426700  -1.0769224  -0.9663590  -0.9533550
           31          32          33          34          35          36
    1  -0.9205794  -0.8773394  -0.8499368  -0.8390981  -0.8240081  -0.7893961
           37          38          39          40          41          42
    1  -0.7641388  -0.7494454  -0.7128337  -0.7021527  -0.6932376  -0.6506231
           43          44          45          46          47          48
    1  -0.6394924  -0.6370191  -0.6202023  -0.6043371  -0.5881982  -0.5807529
           49          50          51          52          53          54
    1  -0.5729067  -0.5671310  -0.5515519  -0.5494390  -0.5319353  -0.5212427
           55          56          57          58          59          60
    1  -0.5137734  -0.5058292  -0.5023202  -0.4971045  -0.4936398  -0.4892587
           61          62          63          64          65          66
    1  -0.4831581  -0.4789216  -0.4664914  -0.4573302  -0.4517769  -0.4418424
           67          68          69          70          71          72
    1  -0.4347590  -0.4322021  -0.4180387  -0.4156725  -0.4108243  -0.3954347
           73          74          75          76          77          78
    1  -0.3556649  -0.3152073  -0.3139547  -0.3041622  -0.2896563  -0.2480957
           79          80          81          82          83          84
    1  -0.0673073   0.0106168   0.0272579   0.0297388   0.0334974   0.0409289
           85          86          87          88          89          90
    1   0.0450801   0.0457796   0.0549956   0.0617851   0.0654016   0.0673711
           91          92          93          94          95          96
    1   0.0752848   0.0767322   0.0853168   0.0914140   0.0929239   0.0967550
           97          98          99         100         101         102
    1   0.1015922   0.1072174   0.1100416   0.1137005   0.1198972   0.1248191
          103         104         105         106         107         108
    1   0.1279422   0.1315374   0.1414842   0.1437360   0.1460240   0.1511960
          109         110         111         112         113         114
    1   0.1549241   0.1584508   0.1699758   0.1728670   0.1789714   0.1833336
          115         116         117         118         119         120
    1   0.1889204   0.1929312   0.1945197   0.2006854   0.2055899   0.2103718
          121         122         123         124         125         126
    1   0.2158716   0.2220953   0.2274551   0.2282294   0.2318502   0.2378412
          127         128         129         130         131         132
    1   0.2387101   0.2421274   0.2457297   0.2499133   0.2536422   0.2639408
          133         134         135         136         137         138
    1   0.2676111   0.2752027   0.2791749   0.2802120   0.2890081   0.2898409
          139         140         141         142         143         144
    1   0.2974559   0.2997998   0.3041933   0.3113200   0.3139410   0.3177242
          145         146         147         148         149         150
    1   0.3197941   0.3212471   0.3248660   0.3295357   0.3346783   0.3396287
          151         152         153         154         155         156
    1   0.3459647   0.3512436   0.3552800   0.3573145   0.3609169   0.3645186
          157         158         159         160         161         162
    1   0.3685672   0.3739998   0.3792239   0.3850182   0.3851699   0.3924810
          163         164         165         166         167         168
    1   0.3998807   0.4040342   0.4055483   0.4088351   0.4105231   0.4168061
          169         170         171         172         173         174
    1   0.4250131   0.4276660   0.4300850   0.4391605   0.4442136   0.4471895
          175         176         177         178         179         180
    1   0.4493376   0.4543594   0.4604888   0.4637737   0.4668137   0.4719758
          181         182         183         184         185         186
    1   0.4751183   0.4797918   0.4825815   0.4855480   0.4898901   0.4932818
          187         188         189         190         191         192
    1   0.4974990   0.5047673   0.5118357   0.5140580   0.5211330   0.5244068
          193         194         195         196         197         198
    1   0.5255669   0.5297129   0.5318739   0.5387372   0.5420550   0.5464432
          199         200         201         202         203         204
    1   0.5574474   0.5605523   0.5642825   0.5695878   0.5726443   0.5811103
          205         206         207         208         209         210
    1   0.5862692   0.5882902   0.5915896   0.6064278   0.6116162   0.6157669
          211         212         213         214         215         216
    1   0.6211137   0.6291369   0.6384530   0.6407855   0.6431792   0.6499096
          217         218         219         220         221         222
    1   0.6517059   0.6528770   0.6609182   0.6717862   0.6769212   0.6787670
          223         224         225         226         227         228
    1   0.6829144   0.6848443   0.6872826   0.6942090   0.7017444   0.7116456
          229         230         231         232         233         234
    1   0.7200933   0.7241834   0.7310630   0.7370121   0.7471233   0.7501838
          235         236         237         238         239         240
    1   0.7556822   0.7562504   0.7614992   0.7667184   0.7754205   0.7793406
          241         242         243         244         245         246
    1   0.7860446   0.7906673   0.7965346   0.8037688   0.8059284   0.8092146
          247         248         249         250         251         252
    1   0.8135831   0.8174861   0.8224657   0.8297323   0.8311511   0.8392064
          253         254         255         256         257         258
    1   0.8418020   0.8472883   0.8513265   0.8603734   0.8721111   0.8843627
          259         260         261         262         263         264
    1   0.8902838   0.8967366   0.9081308   0.9110726   0.9167322   0.9215060
          265         266         267         268         269         270
    1   0.9281236   0.9406033   0.9445821   0.9520738   0.9593848   0.9804440
          271         272         273         274         275         276
    1   0.9870948   0.9912979   1.0049375   1.0230409   1.0360748   1.0423256
          277         278         279         280         281         282
    1   1.0492376   1.0585548   1.0682137   1.0741161   1.0797602   1.0842464
          283         284         285         286         287         288
    1   1.0915126   1.0966543   1.1054115   1.1136926   1.1217817   1.1308524
          289         290         291         292         293         294
    1   1.1368091   1.1450216   1.1476071   1.1653272   1.1728805   1.1788848
          295         296         297         298         299         300
    1   1.1904460   1.1959133   1.1995457   1.2032210   1.2114766   1.2335915
          301         302         303         304         305         306
    1   1.2390267   1.2433841   1.2496353   1.2611904   1.2665999   1.2777005
          307         308         309         310         311         312
    1   1.2801877   1.2963259   1.3020050   1.3167495   1.3337684   1.3398387
          313         314         315         316         317         318
    1   1.3492071   1.3506573   1.3683281   1.3784079   1.3821431   1.3919829
          319         320         321         322         323         324
    1   1.3989901   1.4160112   1.4239114   1.4323496   1.4440102   1.4504900
          325         326         327         328         329         330
    1   1.4667002   1.4739650   1.4804645   1.4902882   1.4963359   1.5001557
          331         332         333         334         335         336
    1   1.5168638   1.5212799   1.5316136   1.5351322   1.5486913   1.5504143
          337         338         339         340         341         342
    1   1.5643864   1.5727535   1.5799420   1.5874160   1.5895201   1.5929345
          343         344         345         346         347         348
    1   1.6016282   1.6155718   1.6180577   1.6198237   1.6426349   1.6434096
          349         350         351         352         353         354
    1   1.6462746   1.6504166   1.6592037   1.6750678   1.6905216   1.6943367
          355         356         357         358         359         360
    1   1.7012642   1.7035236   1.7131862   1.7238466   1.7286494   1.7328174
          361         362         363         364         365         366
    1   1.7404157   1.7441454   1.7597834   1.7633419   1.7705690   1.7817744
          367         368         369         370         371         372
    1   1.7883474   1.7967979   1.8079242   1.8127933   1.8222777   1.8425617
          373         374         375         376         377         378
    1   1.8461027   1.8596487   1.8772235   1.8856568   1.8895832   1.9095819
          379         380         381         382         383         384
    1   1.9223202   1.9309019   1.9360226   1.9469484   1.9529077   1.9583704
          385         386         387         388         389         390
    1   1.9665750   1.9840633   1.9892250   2.0003137   2.0056611   2.0177946
          391         392         393         394         395         396
    1   2.0244057   2.0354703   2.0465369   2.0480613   2.0564153   2.0576124
          397         398         399         400         401         402
    1   2.0646142   2.0762590   2.0951713   2.1001517   2.1148680   2.1296510
          403         404         405         406         407         408
    1   2.1341250   2.1434144   2.1456367   2.1678528   2.1758997   2.1829416
          409         410         411         412         413         414
    1   2.1881583   2.1991951   2.2047370   2.2122978   2.2166417   2.2212476
          415         416         417         418         419         420
    1   2.2274508   2.2369023   2.2504034   2.2555943   2.2645794   2.2817027
          421         422         423         424         425         426
    1   2.2829551   2.2903966   2.2943647   2.3175112   2.3292298   2.3317700
          427         428         429         430         431         432
    1   2.3479601   2.3618118   2.3646005   2.3774946   2.3805086   2.3947621
          433         434         435         436         437         438
    1   2.4100613   2.4144840   2.4185145   2.4328638   2.4441028   2.4542842
          439         440         441         442         443         444
    1   2.4633390   2.4818514   2.4878263   2.5012098   2.5039369   2.5335722
          445         446         447         448         449         450
    1   2.5347806   2.5488705   2.5577865   2.5683611   2.5797389   2.5888328
          451         452         453         454         455         456
    1   2.5932561   2.6012482   2.6068679   2.6316751   2.6354568   2.6483485
          457         458         459         460         461         462
    1   2.6500319   2.6597976   2.6651420   2.6863477   2.6894990   2.6963010
          463         464         465         466         467         468
    1   2.7068687   2.7077178   2.7240540   2.7249712   2.7327143   2.7414218
          469         470         471         472         473         474
    1   2.7507674   2.7602170   2.7682782   2.7725030   2.7821397   2.7925538
          475         476         477         478         479         480
    1   2.8012333   2.8070655   2.8190562   2.8249139   2.8355723   2.8408022
          481         482         483         484         485         486
    1   2.8488406   2.8622164   2.8642949   2.8652751   2.8771458   2.8842427
          487         488         489         490         491         492
    1   2.8886081   2.8952839   2.9045825   2.9108077   2.9123561   2.9234306
          493         494         495         496         497         498
    1   2.9345732   2.9429943   2.9506723   2.9604892   2.9686098   2.9692624
          499         500         501         502         503         504
    1   2.9823613   2.9957020   3.0007442   3.0054529   3.0139083   3.0180180
          505         506         507         508         509         510
    1   3.0250259   3.0330109   3.0414046   3.0445884   3.0509522   3.0674467
          511         512         513         514         515         516
    1   3.0756168   3.0779945   3.0834275   3.0964077   3.1004176   3.1050952
          517         518         519         520         521         522
    1   3.1242155   3.1300832   3.1425439   3.1444257   3.1512577   3.1609356
          523         524         525         526         527         528
    1   3.1820034   3.1883459   3.1890757   3.2006063   3.2018731   3.2092686
          529         530         531         532         533         534
    1   3.2156007   3.2209302   3.2274029   3.2358861   3.2455774   3.2478370
          535         536         537         538         539         540
    1   3.2508955   3.2544639   3.2620018   3.2667745   3.2747800   3.2830569
          541         542         543         544         545         546
    1   3.2917804   3.2989015   3.3057613   3.3162794   3.3194591   3.3291234
          547         548         549         550         551         552
    1   3.3381193   3.3430838   3.3489535   3.3531482   3.3588528   3.3681544
          553         554         555         556         557         558
    1   3.3731551   3.3807594   3.3910951   3.3983411   3.4039745   3.4123460
          559         560         561         562         563         564
    1   3.4207335   3.4333961   3.4351916   3.4389139   3.4523801   3.4574200
          565         566         567         568         569         570
    1   3.4639873   3.4717929   3.4733628   3.4765906   3.4818960   3.4865815
          571         572         573         574         575         576
    1   3.4912458   3.5010991   3.5063693   3.5173137   3.5202853   3.5265145
          577         578         579         580         581         582
    1   3.5367748   3.5407624   3.5529927   3.5650981   3.5685085   3.5785326
          583         584         585         586         587         588
    1   3.5836506   3.5849359   3.6029833   3.6170333   3.6277201   3.6317350
          589         590         591         592         593         594
    1   3.6353396   3.6444370   3.6549486   3.6650983   3.6756810   3.6795864
          595         596         597         598         599         600
    1   3.6897039   3.7090432   3.7189933   3.7192472   3.7265501   3.7545877
          601         602         603         604         605         606
    1   3.7603641   3.7646631   3.7931434   3.7980295   3.8117028   3.8333117
          607         608         609         610         611         612
    1   3.8505732   3.8591734   3.8640770   3.8822955   3.9154724   3.9243089
          613         614         615         616         617         618
    1   3.9430203   3.9501438   3.9609337   3.9764221   3.9973363   4.0263312
          619         620         621         622         623         624
    1   4.0354125   4.0441805   4.0554569   4.0710435   4.0851230   4.1073737
          625         626         627         628         629         630
    1   4.1101904   4.1312561   4.1385085   4.1454138   4.1850419   4.1858935
          631         632         633         634         635         636
    1   4.1983872   4.2050231   4.2286090   4.2320163   4.2349474   4.2430889
          637         638         639         640         641         642
    1   4.2541017   4.2723655   4.2857952   4.2950494   4.2967859   4.3003792
          643         644         645         646         647         648
    1   4.3111748   4.3313145   4.3480934   4.3605542   4.3739237   4.3844825
          649         650         651         652         653         654
    1   4.4267350   4.4412037   4.4590121   4.4610220   4.4802534   4.4933772
          655         656         657         658         659         660
    1   4.5040895   4.5150646   4.5453170   4.5464221   4.5759229   4.5923467
          661         662         663         664         665         666
    1   4.6108006   4.6198057   4.6229189   4.6601096   4.6643898   4.6701914
          667         668         669         670         671         672
    1   4.6954043   4.6997253   4.7274875   4.7634093   4.8078000   4.8123808
          673         674         675         676         677         678
    1   4.8320038   4.8562947   4.8783462   4.9226611   4.9330977   4.9427356
          679         680         681         682         683         684
    1   4.9526763   4.9723969   4.9920829   5.0338904   5.0634642   5.0829737
          685         686         687         688         689         690
    1   5.1107114   5.1451114   5.1609999   5.1836153   5.2111772   5.2257079
          691         692         693         694         695         696
    1   5.2961043   5.3012113   5.3098767   5.3186387   5.3256457   5.3353555
          697         698         699         700         701         702
    1   5.3617915   5.3712013   5.3856000   5.3978435   5.4239618   5.4641133
          703         704         705         706         707         708
    1   5.4956155   5.5211840   5.5298906   5.5364233   5.5390603   5.5472522
          709         710         711         712         713         714
    1   5.5769992   5.5993664   5.6277076   5.6312218   5.6446474   5.6751149
          715         716         717         718         719         720
    1   5.7053485   5.7382980   5.8020559   5.8270152   5.8386438   5.8493602
          721         722         723         724         725         726
    1   5.8718542   5.8789702   5.9692424   5.9950688   6.0495025   6.0620150
          727         728         729         730         731         732
    1   6.0760272   6.1155557   6.1705127   6.2084333   6.2438839   6.2847909
          733         734         735         736         737         738
    1   6.3978516   6.4338795   6.4468903   6.4535813   6.4664935   6.4760871
          739         740         741         742         743         744
    1   6.4787623   6.4927566   6.4970063   6.5136959   6.6116585   6.6712616
          745         746         747         748         749         750
    1   6.6848285   6.6908194   6.7110466   6.7351176   6.7814019   6.7843557
          751         752         753         754         755         756
    1   6.7888828   6.9053454   6.9087400   6.9222605   6.9243438   6.9325593
          757         758         759         760         761         762
    1   6.9526212   6.9567412   6.9759230   7.0265106   7.1187396   7.1293913
          763         764         765         766         767         768
    1   7.1574900   7.1699588   7.2346158   7.2776352   7.3732577   7.3997313
          769         770         771         772         773         774
    1   7.4086576   7.4982778   7.5421889   7.5729249  22.4149733  22.4704453
          775         776         777         778         779         780
    1  22.5736523  22.7958340  22.8216409  22.8580670  22.8696522  22.9353680
          781         782         783         784         785         786
    1  22.9922002  23.0174357  23.0591887  23.1565651  23.2050160  23.3463986
          787         788         789         790         791         792
    1  23.5571625  23.7022373  44.0940942  44.1188210  44.1508140  44.1600027
          793         794
    1  44.4049831  44.6662237
 SCF time:   CPU 10058.38s  wall 750.00s 
 DFT Correlation          Energy =  -6.39358588670593
 DFT Exchange             Energy = -97.97727317722355
 HF Exchange              Energy = -38.23165832089582
 One-Electron             Energy = -4835.02337555913709
 SCRF wf-dependent energy Energy =  -0.84129780305807
 Total Coulomb            Energy = 2208.91391896163714
 Nuclear repulsion Energy = 1701.35393507821891

************** Final PCM Free Energy Summary **************
 G_electrostatic  =      -0.04973555 hartree =     -31.20952717 kcal/mol
 G_cavitation     =       0.00000000 hartree =       0.00000000 kcal/mol
 G_dispersion     =       0.00000000 hartree =       0.00000000 kcal/mol
 G_repulsion      =       0.00000000 hartree =       0.00000000 kcal/mol
 --------------------------------------------------
 Non-electrostatic Free Energy =       0.00000000 hartree =       0.00000000 kcal/mol
 Total                         =      -0.04973555 hartree =     -31.20952717 kcal/mol
 --------------------------------------------------
 SCF Energy (H0 + V/2)                       =   -1068.19933671 
 Solute Internal Energy (H0)                 =   -1068.14960116 
 Total Free Energy (H0 + V/2 + non-elec)     =   -1068.19933671 hartree
                                             = -670305.20397162 kcal/mol
***********************************************************

 SCF   energy = -1068.19933671
 Total energy = -1068.19933671
 MAX_CIS_SUBSPACE fits in available memory
 Direct TDDFT/TDA calculation will be performed
 Exchange:     0.1900 Hartree-Fock + 0.3500 B88 + 0.4600 muB88 + LR-HF
 Correlation:  0.1900 VWN5 + 0.8100 LYP
 Using SG-1 standard quadrature grid
 Triplet excitation energies requested
 Singlet excitation energies requested
 Adding PCM contribution to the XC response (LR-PCM)
 Optical dielectric constant (eps_inf) =  1.78
 CIS energy converged when residual is below 10e- 6
 ---------------------------------------------------
 Iter    Rts Conv    Rts Left    Ttl Dev     Max Dev
 ---------------------------------------------------
   1         0           7      0.000932    0.000144
   2         0           7      0.000375    0.000065
   3         0           7      0.000234    0.000110
   4         0           7      0.000120    0.000053
   5         1           6      0.000118    0.000078
   6         4           3      0.000068    0.000050
   7         4           3      0.000032    0.000023
   8         5           2      0.000015    0.000010
   9         6           1      0.000007    0.000005
  10         6           1      0.000003    0.000002
  11         7           0      0.000002    0.000001    Roots Converged
 ---------------------------------------------------
 Triplets done: starting singlet calculation
 ---------------------------------------------------
 Iter    Rts Conv    Rts Left    Ttl Dev     Max Dev
 ---------------------------------------------------
  12         0           7      0.002042    0.000526
  13         0           7      0.000648    0.000129
  14         0           7      0.000304    0.000070
  15         0           7      0.000183    0.000050
  16         0           7      0.000090    0.000035
  17         1           6      0.000054    0.000023
  18         3           4      0.000029    0.000012
  19         5           2      0.000015    0.000006
  20         5           2      0.000008    0.000002
  21         5           2      0.000005    0.000001
  22         7           0      0.000004    0.000001    Roots Converged
 ---------------------------------------------------
 
 ---------------------------------------------------
         TDDFT/TDA Excitation Energies              
 ---------------------------------------------------

 Excited state   1: excitation energy (eV) =       1.6060
 Total energy for state   1:                 -1068.14031650 au
    Multiplicity: Triplet
    Trans. Mom.:  0.0000 X   0.0000 Y   0.0000 Z
    Strength   :     0.0000000000
    D(   73) --> V(    1) amplitude =  0.1081
    D(   77) --> V(    1) amplitude =  0.1527
    D(   77) --> V(    2) amplitude =  0.0868
    D(   78) --> V(    1) amplitude =  0.9612

 Excited state   2: excitation energy (eV) =       2.7703
 Total energy for state   2:                 -1068.09752885 au
    Multiplicity: Singlet
    Trans. Mom.:  3.0406 X   1.6793 Y  -0.0256 Z
    Strength   :     0.8189459764
    D(   76) --> V(    1) amplitude = -0.1454
    D(   77) --> V(    1) amplitude =  0.1362
    D(   78) --> V(    1) amplitude =  0.9602

 Excited state   3: excitation energy (eV) =       2.9436
 Total energy for state   3:                 -1068.09116279 au
    Multiplicity: Triplet
    Trans. Mom.:  0.0000 X   0.0000 Y   0.0000 Z
    Strength   :     0.0000000000
    D(   72) --> V(    1) amplitude =  0.0732
    D(   73) --> V(    1) amplitude = -0.0914
    D(   76) --> V(    1) amplitude = -0.3991
    D(   76) --> V(    2) amplitude = -0.1093
    D(   76) --> V(    7) amplitude = -0.0941
    D(   77) --> V(    1) amplitude =  0.7450
    D(   77) --> V(    7) amplitude = -0.1102
    D(   78) --> V(    1) amplitude = -0.0913
    D(   78) --> V(    2) amplitude =  0.4155

 Excited state   4: excitation energy (eV) =       3.1347
 Total energy for state   4:                 -1068.08413837 au
    Multiplicity: Triplet
    Trans. Mom.:  0.0000 X   0.0000 Y   0.0000 Z
    Strength   :     0.0000000000
    D(   71) --> V(    1) amplitude = -0.0711
    D(   72) --> V(    1) amplitude = -0.0725
    D(   73) --> V(    1) amplitude = -0.1349
    D(   74) --> V(    1) amplitude =  0.3615
    D(   76) --> V(    1) amplitude =  0.7510
    D(   76) --> V(    2) amplitude =  0.0761
    D(   76) --> V(    4) amplitude =  0.0759
    D(   76) --> V(    7) amplitude =  0.1677
    D(   76) --> V(   11) amplitude =  0.0751
    D(   77) --> V(    1) amplitude =  0.1878
    D(   77) --> V(    2) amplitude = -0.0957
    D(   77) --> V(    7) amplitude = -0.1180
    D(   78) --> V(    2) amplitude =  0.3252
    D(   78) --> V(    7) amplitude =  0.0768

 Excited state   5: excitation energy (eV) =       3.6206
 Total energy for state   5:                 -1068.06628126 au
    Multiplicity: Triplet
    Trans. Mom.:  0.0000 X   0.0000 Y   0.0000 Z
    Strength   :     0.0000000000
    D(   71) --> V(    1) amplitude =  0.0921
    D(   73) --> V(    1) amplitude = -0.2650
    D(   74) --> V(    1) amplitude =  0.3474
    D(   76) --> V(    1) amplitude = -0.2598
    D(   76) --> V(    4) amplitude =  0.0718
    D(   77) --> V(    1) amplitude = -0.4409
    D(   77) --> V(    2) amplitude =  0.3637
    D(   77) --> V(    4) amplitude =  0.0722
    D(   78) --> V(    1) amplitude =  0.0814
    D(   78) --> V(    2) amplitude =  0.4727
    D(   78) --> V(    4) amplitude = -0.1353
    D(   78) --> V(    7) amplitude = -0.1925
    D(   78) --> V(   10) amplitude =  0.0844
    D(   78) --> V(   11) amplitude =  0.1538

 Excited state   6: excitation energy (eV) =       3.7460
 Total energy for state   6:                 -1068.06167298 au
    Multiplicity: Singlet
    Trans. Mom.: -1.4559 X  -0.8330 Y   0.0210 Z
    Strength   :     0.2582494394
    D(   73) --> V(    1) amplitude = -0.1401
    D(   76) --> V(    1) amplitude = -0.5823
    D(   76) --> V(    2) amplitude = -0.1088
    D(   77) --> V(    1) amplitude =  0.7489
    D(   78) --> V(    1) amplitude = -0.1889
    D(   78) --> V(    2) amplitude =  0.0982

 Excited state   7: excitation energy (eV) =       3.7764
 Total energy for state   7:                 -1068.06055763 au
    Multiplicity: Triplet
    Trans. Mom.:  0.0000 X   0.0000 Y   0.0000 Z
    Strength   :     0.0000000000
    D(   74) --> V(    1) amplitude =  0.1335
    D(   75) --> V(    1) amplitude =  0.8736
    D(   75) --> V(    2) amplitude =  0.3422
    D(   75) --> V(   10) amplitude =  0.1053
    D(   75) --> V(   11) amplitude =  0.2179
    D(   75) --> V(   29) amplitude =  0.1023

 Excited state   8: excitation energy (eV) =       3.9231
 Total energy for state   8:                 -1068.05516446 au
    Multiplicity: Triplet
    Trans. Mom.:  0.0000 X   0.0000 Y   0.0000 Z
    Strength   :     0.0000000000
    D(   72) --> V(    1) amplitude = -0.0772
    D(   73) --> V(    2) amplitude = -0.1217
    D(   74) --> V(    1) amplitude =  0.6889
    D(   74) --> V(    2) amplitude = -0.2397
    D(   74) --> V(    4) amplitude = -0.1557
    D(   75) --> V(    1) amplitude = -0.1020
    D(   76) --> V(    1) amplitude = -0.2347
    D(   76) --> V(    2) amplitude =  0.1288
    D(   76) --> V(    4) amplitude =  0.0886
    D(   77) --> V(    2) amplitude = -0.0873
    D(   77) --> V(    4) amplitude =  0.0914
    D(   77) --> V(    7) amplitude =  0.0734
    D(   78) --> V(    2) amplitude = -0.4064
    D(   78) --> V(    4) amplitude =  0.1474
    D(   78) --> V(    7) amplitude =  0.2090
    D(   78) --> V(   11) amplitude = -0.0714

 Excited state   9: excitation energy (eV) =       4.0324
 Total energy for state   9:                 -1068.05114999 au
    Multiplicity: Singlet
    Trans. Mom.: -0.0254 X   0.0013 Y  -0.0128 Z
    Strength   :     0.0000802784
    D(   74) --> V(    1) amplitude =  0.1564
    D(   75) --> V(    1) amplitude =  0.9006
    D(   75) --> V(    2) amplitude =  0.3048
    D(   75) --> V(   10) amplitude =  0.0889
    D(   75) --> V(   11) amplitude =  0.1844
    D(   75) --> V(   29) amplitude =  0.0805

 Excited state  10: excitation energy (eV) =       4.0839
 Total energy for state  10:                 -1068.04925595 au
    Multiplicity: Triplet
    Trans. Mom.:  0.0000 X   0.0000 Y   0.0000 Z
    Strength   :     0.0000000000
    D(   60) --> V(    1) amplitude =  0.0740
    D(   72) --> V(    1) amplitude = -0.1303
    D(   73) --> V(    1) amplitude = -0.6166
    D(   73) --> V(    2) amplitude = -0.0975
    D(   74) --> V(    2) amplitude =  0.2169
    D(   74) --> V(    3) amplitude = -0.0791
    D(   74) --> V(    4) amplitude =  0.2139
    D(   74) --> V(   11) amplitude = -0.0783
    D(   76) --> V(    4) amplitude = -0.1034
    D(   76) --> V(    7) amplitude =  0.0798
    D(   77) --> V(    1) amplitude =  0.2472
    D(   77) --> V(    2) amplitude =  0.2784
    D(   77) --> V(    4) amplitude = -0.1384
    D(   77) --> V(    7) amplitude =  0.1037
    D(   77) --> V(   11) amplitude = -0.0888
    D(   78) --> V(    2) amplitude = -0.3842
    D(   78) --> V(    7) amplitude = -0.1264
    D(   78) --> V(   10) amplitude =  0.0951
    D(   78) --> V(   11) amplitude =  0.1718

 Excited state  11: excitation energy (eV) =       4.1947
 Total energy for state  11:                 -1068.04518323 au
    Multiplicity: Singlet
    Trans. Mom.: -0.0001 X  -0.2674 Y   0.2006 Z
    Strength   :     0.0114830926
    D(   74) --> V(    1) amplitude = -0.1640
    D(   74) --> V(    2) amplitude =  0.1096
    D(   74) --> V(    7) amplitude =  0.0812
    D(   76) --> V(    1) amplitude =  0.7026
    D(   77) --> V(    1) amplitude =  0.5667
    D(   77) --> V(    2) amplitude = -0.1707
    D(   77) --> V(    4) amplitude = -0.0813
    D(   78) --> V(    2) amplitude = -0.1885
    D(   78) --> V(    3) amplitude = -0.0722
    D(   78) --> V(    4) amplitude =  0.1737

 Excited state  12: excitation energy (eV) =       4.4902
 Total energy for state  12:                 -1068.03432314 au
    Multiplicity: Singlet
    Trans. Mom.: -0.2542 X  -0.5978 Y   0.1778 Z
    Strength   :     0.0499026531
    D(   73) --> V(    1) amplitude = -0.0808
    D(   74) --> V(    1) amplitude =  0.8209
    D(   74) --> V(    2) amplitude = -0.1074
[...]
      XZZZ     107.8393   YZZZ     274.9056   ZZZZ    -692.9932
    5th-Order Moments (Debye-Ang^4)
       500   53779.5428    410  -18144.7712    320    -639.8803
       230  -13792.1896    140   -8937.3286    050  -60522.6669
       401    4316.5107    311    -670.9540    221     761.3610
       131    -451.8092    041       7.7532    302    4070.4753
       212   -2055.8413    122   -1283.2467    032   -8250.3661
       203    -210.8147    113    -360.0462    023    1578.6285
       104     906.9494    014    -902.9620    005   -1133.4432
 -----------------------------------------------------------------
 -----------------------------------------------------------------
                 RPA Excited-State Multipoles, State    4   
                  LMN = < X^L Y^M Z^N >
 -----------------------------------------------------------------
    Charge (ESU x 10^10)
                -0.0000
    Dipole Moment (Debye)
         X       3.5511      Y      -3.1989      Z       4.0846
       Tot       6.2871
    Quadrupole Moments (Debye-Ang)
        XX    -173.6355     XY      19.0005     YY     -91.4511
        XZ     -19.1798     YZ     -11.9331     ZZ    -123.8098
    Octopole Moments (Debye-Ang^2)
       XXX     672.5595    XXY    -538.5798    XYY      57.7383
       YYY    -642.3597    XXZ      95.1453    XYZ      -2.5467
       YYZ     -84.9486    XZZ     122.7097    YZZ    -325.3075
       ZZZ     -93.6150
    Hexadecapole Moments (Debye-Ang^3)
      XXXX   -8980.4230   XXXY     397.5089   XXYY   -2825.1631
      XYYY    -926.4963   YYYY   -6675.5928   XXXZ    -636.0370
      XXYZ     123.8078   XYYZ     -30.1094   YYYZ    -161.1314
      XXZZ   -1237.4222   XYZZ    -212.4756   YYZZ   -1605.9984
      XZZZ     101.6119   YZZZ     274.9464   ZZZZ    -686.8922
    5th-Order Moments (Debye-Ang^4)
       500   50009.6200    410  -17988.5369    320    -809.2377
       230  -14105.9054    140   -9366.0221    050  -61783.0995
       401    4308.7580    311    -598.9382    221     770.2529
       131    -425.2367    041      72.4854    302    3944.7358
       212   -2063.5161    122   -1295.0502    032   -8281.1956
       203    -189.2892    113    -355.9917    023    1582.8455
       104     891.7617    014    -905.6653    005   -1118.4036
 -----------------------------------------------------------------
 -----------------------------------------------------------------
                 RPA Excited-State Multipoles, State    5   
                  LMN = < X^L Y^M Z^N >
 -----------------------------------------------------------------
    Charge (ESU x 10^10)
                -0.0000
    Dipole Moment (Debye)
         X       9.8935      Y       2.7960      Z       3.0342
       Tot      10.7194
    Quadrupole Moments (Debye-Ang)
        XX    -199.6987     XY      19.1471     YY     -64.5354
        XZ     -14.9951     YZ     -13.3323     ZZ    -124.0954
    Octopole Moments (Debye-Ang^2)
       XXX     803.1992    XXY    -523.1554    XYY      77.1596
       YYY    -484.6557    XXZ      75.6010    XYZ      -4.9284
       YYZ     -97.9943    XZZ     129.7899    YZZ    -320.0688
       ZZZ     -95.7262
    Hexadecapole Moments (Debye-Ang^3)
      XXXX   -9633.5089   XXXY     346.5380   XXYY   -2820.8324
      XYYY    -837.0393   YYYY   -5754.6565   XXXZ    -546.0289
      XXYZ     127.9892   XYYZ     -33.8098   YYYZ    -235.9637
      XXZZ   -1268.0505   XYZZ    -213.8517   YYZZ   -1585.9215
      XZZZ     111.7719   YZZZ     273.6896   ZZZZ    -687.8274
    5th-Order Moments (Debye-Ang^4)
       500   53244.0260    410  -17854.4185    320    -778.3075
       230  -13979.9989    140   -8756.3109    050  -56118.7337
       401    3895.4297    311    -624.1391    221     742.3525
       131    -489.6263    041    -421.2138    302    4097.3294
       212   -2047.5441    122   -1274.6376    032   -8153.5459
       203    -234.9523    113    -363.5912    023    1559.2859
       104     912.3418    014    -893.5046    005   -1122.5093
 -----------------------------------------------------------------
 -----------------------------------------------------------------
                 RPA Excited-State Multipoles, State    6   
                  LMN = < X^L Y^M Z^N >
 -----------------------------------------------------------------
    Charge (ESU x 10^10)
                -0.0000
    Dipole Moment (Debye)
         X       5.1927      Y      -0.1865      Z       2.9174
       Tot       5.9591
    Quadrupole Moments (Debye-Ang)
        XX    -178.6236     XY      23.3696     YY     -77.3505
        XZ     -19.9196     YZ     -12.9293     ZZ    -125.8159
    Octopole Moments (Debye-Ang^2)
       XXX     752.9385    XXY    -532.7661    XYY      77.3893
       YYY    -574.0406    XXZ     105.5074    XYZ      -3.3336
       YYZ     -87.5935    XZZ     125.9687    YZZ    -325.0869
       ZZZ     -98.4324
    Hexadecapole Moments (Debye-Ang^3)
      XXXX   -9495.4659   XXXY     535.9468   XXYY   -2748.8585
      XYYY    -804.0559   YYYY   -6307.2563   XXXZ    -713.7832
      XXYZ     130.9003   XYYZ     -39.1298   YYYZ    -180.1540
      XXZZ   -1248.2859   XYZZ    -206.1565   YYZZ   -1598.8690
      XZZZ     103.0006   YZZZ     271.7589   ZZZZ    -698.5645
    5th-Order Moments (Debye-Ang^4)
       500   53762.0061    410  -18643.5690    320    -500.7804
       230  -13701.2034    140   -8664.5926    050  -59693.5312
       401    4791.2258    311    -691.1001    221     784.0769
       131    -459.0905    041     -44.4336    302    4030.4377
       212   -2077.8252    122   -1284.1390    032   -8244.6039
       203    -175.0796    113    -353.1807    023    1577.9756
       104     905.8987    014    -909.5547    005   -1148.9474
 -----------------------------------------------------------------
 -----------------------------------------------------------------
                 RPA Excited-State Multipoles, State    7   
                  LMN = < X^L Y^M Z^N >
 -----------------------------------------------------------------
    Charge (ESU x 10^10)
                -0.0000
    Dipole Moment (Debye)
         X      -4.9965      Y      -0.3289      Z      -0.0507
       Tot       5.0076
    Quadrupole Moments (Debye-Ang)
        XX    -108.8614     XY      -8.6880     YY     -93.8916
        XZ      -0.0709     YZ     -14.9812     ZZ    -125.8547
    Octopole Moments (Debye-Ang^2)
       XXX     205.3383    XXY    -393.8081    XYY       9.4391
       YYY    -670.0174    XXZ      -7.9027    XYZ      19.0638
       YYZ     -91.7985    XZZ     121.3225    YZZ    -321.9018
       ZZZ    -102.3251
    Hexadecapole Moments (Debye-Ang^3)
      XXXX   -5858.5166   XXXY    -512.0731   XXYY   -2631.8981
      XYYY   -1091.4603   YYYY   -6910.9938   XXXZ     -46.7513
      XXYZ      -1.8779   XYYZ      25.9623   YYYZ    -155.3276
      XXZZ   -1208.6869   XYZZ    -240.1944   YYZZ   -1607.9139
      XZZZ     132.0581   YZZZ     272.4791   ZZZZ    -699.1933
    5th-Order Moments (Debye-Ang^4)
       500   29389.0439    410  -12652.3694    320   -2305.3441
       230  -13791.3093    140   -9985.6241    050  -63324.9204
       401     871.1142    311     192.5052    221     501.0347
       131    -311.6801    041     157.5456    302    3678.7312
       212   -1920.6328    122   -1336.1487    032   -8291.8566
       203    -334.9357    113    -336.8433    023    1569.0549
       104     912.0461    014    -898.1435    005   -1154.9291
 -----------------------------------------------------------------
 -----------------------------------------------------------------
                 RPA Excited-State Multipoles, State    8   
                  LMN = < X^L Y^M Z^N >
 -----------------------------------------------------------------
    Charge (ESU x 10^10)
                -0.0000
    Dipole Moment (Debye)
         X      10.8336      Y       1.5955      Z       3.5285
       Tot      11.5049
    Quadrupole Moments (Debye-Ang)
        XX    -198.9972     XY      20.7366     YY     -75.7200
        XZ     -14.9929     YZ     -11.0101     ZZ    -124.3109
    Octopole Moments (Debye-Ang^2)
       XXX     826.0326    XXY    -524.9798    XYY      68.9871
       YYY    -567.6929    XXZ      81.7162    XYZ      -1.7324
       YYZ     -86.2366    XZZ     130.4977    YZZ    -320.8713
       ZZZ     -95.1242
    Hexadecapole Moments (Debye-Ang^3)
      XXXX   -9687.8925   XXXY     402.4018   XXYY   -2848.1039
      XYYY    -940.8891   YYYY   -6315.6389   XXXZ    -559.0198
      XXYZ     144.4006   XYYZ     -14.8170   YYYZ    -172.9011
      XXZZ   -1269.0655   XYZZ    -212.1210   YYZZ   -1592.5196
      XZZZ     111.1064   YZZZ     277.3413   ZZZZ    -688.8043
    5th-Order Moments (Debye-Ang^4)
       500   53838.2381    410  -18001.6028    320    -710.0159
       230  -14226.3907    140   -9548.0628    050  -59748.5567
       401    4029.1109    311    -618.5179    221     800.7719
       131    -393.7193    041     -74.8741    302    4120.1542
       212   -2047.4839    122   -1275.9957    032   -8203.2006
       203    -223.8815    113    -358.0173    023    1578.9170
       104     911.8002    014    -896.2506    005   -1120.9476
 -----------------------------------------------------------------
 -----------------------------------------------------------------
                 RPA Excited-State Multipoles, State    9   
                  LMN = < X^L Y^M Z^N >
 -----------------------------------------------------------------
    Charge (ESU x 10^10)
                -0.0000
    Dipole Moment (Debye)
         X      10.5316      Y       0.5865      Z       4.0462
       Tot      11.2974
    Quadrupole Moments (Debye-Ang)
        XX    -201.4009     XY      19.7345     YY     -81.8031
        XZ     -15.0435     YZ     -10.1436     ZZ    -123.7853
    Octopole Moments (Debye-Ang^2)
       XXX     836.5476    XXY    -524.0371    XYY      75.8041
       YYY    -597.1763    XXZ      82.0788    XYZ      -5.4972
       YYZ     -84.2431    XZZ     132.1357    YZZ    -321.1955
       ZZZ     -93.5327
    Hexadecapole Moments (Debye-Ang^3)
      XXXX   -9788.8371   XXXY     436.9597   XXYY   -2803.0871
      XYYY    -865.4909   YYYY   -6490.1573   XXXZ    -582.6964
      XXYZ     139.1607   XYYZ     -27.2658   YYYZ    -153.4766
      XXZZ   -1272.2330   XYZZ    -213.7741   YYZZ   -1601.0402
      XZZZ     114.2816   YZZZ     280.8642   ZZZZ    -687.2827
    5th-Order Moments (Debye-Ang^4)
       500   54523.7167    410  -18127.3684    320    -531.1796
       230  -13870.4953    140   -9009.5074    050  -60914.1531
       401    4127.0754    311    -675.8648    221     764.3172
       131    -440.1342    041      85.9098    302    4134.7542
       212   -2050.5158    122   -1276.7593    032   -8250.2269
       203    -224.1204    113    -364.9632    023    1583.2348
       104     924.6448    014    -892.2797    005   -1119.2632
 -----------------------------------------------------------------
 -----------------------------------------------------------------
                 RPA Excited-State Multipoles, State   10   
                  LMN = < X^L Y^M Z^N >
 -----------------------------------------------------------------
    Charge (ESU x 10^10)
                -0.0000
    Dipole Moment (Debye)
         X      -6.3421      Y      -0.4196      Z      -0.3839
       Tot       6.3676
    Quadrupole Moments (Debye-Ang)
        XX    -101.8619     XY     -10.9995     YY     -95.0762
        XZ       0.8258     YZ     -15.2675     ZZ    -126.1024
    Octopole Moments (Debye-Ang^2)
       XXX     163.4551    XXY    -384.8456    XYY       4.6643
       YYY    -676.5745    XXZ     -12.0026    XYZ      20.1826
       YYZ     -92.1579    XZZ     120.8236    YZZ    -322.0561
       ZZZ    -103.1880
    Hexadecapole Moments (Debye-Ang^3)
      XXXX   -5629.7200   XXXY    -571.5345   XXYY   -2622.3493
      XYYY   -1105.0120   YYYY   -6945.7084   XXXZ     -25.3281
      XXYZ      -7.9539   XYYZ      27.5385   YYYZ    -155.1807
      XXZZ   -1205.1543   XYZZ    -241.5475   YYZZ   -1608.8221
      XZZZ     133.5380   YZZZ     271.9748   ZZZZ    -700.9216
    5th-Order Moments (Debye-Ang^4)
       500   28070.2644    410  -12347.4979    320   -2399.6356
       230  -13796.6827    140  -10041.0780    050  -63512.5252
       401     750.5619    311     225.8908    221     492.9673
       131    -307.8236    041     163.4268    302    3656.5144
       212   -1915.2025    122   -1339.5255    032   -8296.6685
       203    -339.4020    113    -335.3041    023    1568.4287
       104     913.6886    014    -898.8637    005   -1159.4418
 -----------------------------------------------------------------
 -----------------------------------------------------------------
                 RPA Excited-State Multipoles, State   11   
                  LMN = < X^L Y^M Z^N >
 -----------------------------------------------------------------
    Charge (ESU x 10^10)
                -0.0000
    Dipole Moment (Debye)
         X      10.4457      Y       4.9740      Z       2.3211
       Tot      11.8000
    Quadrupole Moments (Debye-Ang)
        XX    -193.2540     XY      27.4014     YY     -46.5270
        XZ     -16.6877     YZ     -15.1363     ZZ    -125.2086
    Octopole Moments (Debye-Ang^2)
       XXX     783.3198    XXY    -533.3165    XYY      99.3182
       YYY    -375.8941    XXZ      86.7624    XYZ      -4.8822
       YYZ    -106.3611    XZZ     130.2464    YZZ    -319.2486
       ZZZ     -98.8132
    Hexadecapole Moments (Debye-Ang^3)
      XXXX   -9514.0962   XXXY     437.7434   XXYY   -2809.8726
      XYYY    -734.2849   YYYY   -5087.8364   XXXZ    -601.8106
      XXYZ     130.5133   XYYZ     -40.1153   YYYZ    -291.4790
      XXZZ   -1261.8939   XYZZ    -206.6010   YYZZ   -1572.3749
      XZZZ     109.1880   YZZZ     269.5159   ZZZZ    -695.5067
    5th-Order Moments (Debye-Ang^4)
       500   52862.1218    410  -18194.2657    320    -658.0958
       230  -13920.2946    140   -8266.6954    050  -52003.3192
       401    4197.1608    311    -632.2763    221     758.7990
       131    -515.9947    041    -772.6499    302    4071.0869
       212   -2059.7322    122   -1261.8665    032   -8070.5588
       203    -212.3726    113    -360.5690    023    1544.5398
       104     915.6249    014    -894.5674    005   -1144.5144
 -----------------------------------------------------------------
 -----------------------------------------------------------------
                 RPA Excited-State Multipoles, State   12   
                  LMN = < X^L Y^M Z^N >
 -----------------------------------------------------------------
    Charge (ESU x 10^10)
                -0.0000
    Dipole Moment (Debye)
         X      11.1219      Y       3.2319      Z       2.7901
       Tot      11.9133
    Quadrupole Moments (Debye-Ang)
        XX    -189.1140     XY      25.2435     YY     -67.6606
        XZ     -13.9331     YZ     -11.5287     ZZ    -125.0807
    Octopole Moments (Debye-Ang^2)
       XXX     799.3155    XXY    -497.1108    XYY      96.8158
       YYY    -534.0248    XXZ      76.2765    XYZ      -1.1605
       YYZ     -85.0780    XZZ     131.0855    YZZ    -321.2769
       ZZZ     -97.3449
    Hexadecapole Moments (Debye-Ang^3)
      XXXX   -9409.2588   XXXY     421.0507   XXYY   -2721.1167
      XYYY    -780.2889   YYYY   -6198.1661   XXXZ    -539.0381
      XXYZ     131.6267   XYYZ     -18.1799   YYYZ    -156.2085
      XXZZ   -1262.0718   XYZZ    -209.7923   YYZZ   -1593.9911
      XZZZ     114.5192   YZZZ     276.7210   ZZZZ    -694.2430
    5th-Order Moments (Debye-Ang^4)
       500   52663.2523    410  -17443.1635    320    -442.5000
       230  -13608.9948    140   -8681.4737    050  -59512.2660
       401    3880.6104    311    -589.9898    221     774.0292
       131    -407.2781    041      64.5005    302    4092.0963
       212   -2034.7889    122   -1264.6777    032   -8215.7086
       203    -233.2181    113    -356.6560    023    1581.9041
       104     918.4462    014    -899.0527    005   -1137.2898
 -----------------------------------------------------------------
 -----------------------------------------------------------------
                 RPA Excited-State Multipoles, State   13   
                  LMN = < X^L Y^M Z^N >
 -----------------------------------------------------------------
    Charge (ESU x 10^10)
                -0.0000
    Dipole Moment (Debye)
         X       6.9095      Y      -1.4822      Z       4.0825
       Tot       8.1612
    Quadrupole Moments (Debye-Ang)
        XX    -185.3212     XY      19.7563     YY     -88.1107
        XZ     -16.7269     YZ     -11.0800     ZZ    -124.0954
    Octopole Moments (Debye-Ang^2)
       XXX     739.6562    XXY    -519.3733    XYY      73.6999
       YYY    -629.1431    XXZ      80.7187    XYZ      -2.7933
       YYZ     -83.4690    XZZ     126.7082    YZZ    -324.1948
       ZZZ     -93.8387
    Hexadecapole Moments (Debye-Ang^3)
      XXXX   -9247.5346   XXXY     375.3544   XXYY   -2786.1058
      XYYY    -859.9452   YYYY   -6647.6913   XXXZ    -563.5059
      XXYZ     120.0372   XYYZ     -27.1268   YYYZ    -149.4730
      XXZZ   -1258.2055   XYZZ    -213.9117   YYZZ   -1607.2575
      XZZZ     106.0539   YZZZ     277.6512   ZZZZ    -690.3914
    5th-Order Moments (Debye-Ang^4)
       500   51465.6160    410  -17606.9605    320    -601.3335
       230  -13831.9305    140   -8979.8231    050  -61782.3564
       401    3917.9366    311    -586.9403    221     742.6195
       131    -433.6847    041     129.3941    302    4055.8709
       212   -2054.5191    122   -1284.4538    032   -8284.9596
       203    -212.3501    113    -361.8377    023    1586.0701
       104     910.8799    014    -905.3056    005   -1120.6600
 -----------------------------------------------------------------
 -----------------------------------------------------------------
                 RPA Excited-State Multipoles, State   14   
                  LMN = < X^L Y^M Z^N >
 -----------------------------------------------------------------
    Charge (ESU x 10^10)
                -0.0000
    Dipole Moment (Debye)
         X       6.6069      Y      -2.3070      Z       4.0277
       Tot       8.0744
    Quadrupole Moments (Debye-Ang)
        XX    -196.2317     XY      14.2002     YY     -95.5507
        XZ     -15.0587     YZ     -13.1058     ZZ    -125.0840
    Octopole Moments (Debye-Ang^2)
       XXX     758.0677    XXY    -527.9807    XYY      73.4560
       YYY    -642.6115    XXZ      68.7137    XYZ      -5.9489
       YYZ     -99.8262    XZZ     129.5320    YZZ    -328.3540
       ZZZ     -96.2901
    Hexadecapole Moments (Debye-Ang^3)
      XXXX   -9518.3176   XXXY     301.4133   XXYY   -2856.1906
      XYYY    -829.7183   YYYY   -6623.6774   XXXZ    -540.4024
      XXYZ     102.4466   XYYZ     -37.6017   YYYZ    -233.3444
      XXZZ   -1281.1742   XYZZ    -218.4688   YYZZ   -1633.6462
      XZZZ     116.7467   YZZZ     266.5668   ZZZZ    -700.8206
    5th-Order Moments (Debye-Ang^4)
       500   52188.5899    410  -17878.5794    320    -676.6590
       230  -13985.9562    140   -8564.9913    050  -60994.2213
       401    3727.4122    311    -653.2151    221     616.9335
       131    -532.6361    041    -375.8751    302    4086.8642
       212   -2088.1426    122   -1285.0085    032   -8380.0070
       203    -269.6762    113    -358.4847    023    1521.2106
       104     929.4849    014    -938.2206    005   -1157.3987
 -----------------------------------------------------------------
 Total job time:  8227.26s(wall), 117295.68s(cpu) 
 Fri Jan 31 02:56:19 2025

        *************************************************************
        *                                                           *
        *  Thank you very much for using Q-Chem.  Have a nice day.  *
        *                                                           *
        *************************************************************


