
Running Job 1 of 1 Peonidin_Q1_tddft_full.in
qchem Peonidin_Q1_tddft_full.in_3260726.0 /data/brussel/103/vsc10365/activedata/TDDFTAnthocyanidines/qchem3260726/ 1
/apps/brussel/RL8/skylake/software/Q-Chem/6.2.0/exe/qcprog.exe_s Peonidin_Q1_tddft_full.in_3260726.0 /data/brussel/103/vsc10365/activedata/TDDFTAnthocyanidines/qchem3260726/
                  Welcome to Q-Chem
     A Quantum Leap Into The Future Of Chemistry


 Q-Chem 6.2, Q-Chem, Inc., Pleasanton, CA (2024)

 License issued to: SRG Prof. Dr. Frank De Proft, Vrije Universiteit Brussel

 E. Epifanovsky,  A. T. B. Gilbert,  Xintian Feng,  Joonho Lee,  Yuezhi Mao,  
 N. Mardirossian,  P. Pokhilko,  A. White,  M. Wormit,  M. P. Coons,  
 A. L. Dempwolff,  Zhengting Gan,  D. Hait,  P. R. Horn,  L. D. Jacobson,  
 I. Kaliman,  J. Kussmann,  A. W. Lange,  Ka Un Lao,  D. S. Levine,  Jie Liu,  
 S. C. McKenzie,  A. F. Morrison,  K. D. Nanda,  F. Plasser,  D. R. Rehn,  
 M. L. Vidal,  Zhi-Qiang You,  Ying Zhu,  Huseyin Aksu,  B. Alam,  
 B. Albrecht,  A. Aldossary,  E. Alguire,  J. H. Andersen,  
 J. E. Arias-Martinez,  V. Athavale,  D. Barton,  K. Begam,  A. Behn,  
 N. Bellonzi,  Y. A. Bernard,  E. J. Berquist,  H. Burton,  A. Carreras,  
 K. Carter-Fenk,  Mathew Chow,  Romit Chakraborty,  Chandrima Chakravarty,  
 Junhan Chen,  A. D. Chien,  K. D. Closser,  V. Cofer-Shabica,  L. Cunha,  
 S. Dasgupta,  Jia Deng,  Joseph Dickinson,  M. de Wergifosse,  
 M. Diedenhofen,  Hainam Do,  Wenjie Dou,  S. Ehlert,  Po-Tung Fang,  
 S. Fatehi,  Qingguo Feng,  Jonathan Fetherolf,  T. Friedhoff,  
 Thomas Froitzheim,  Sarai Folkestad,  B. Ganoe,  J. Gayvert,  Qinghui Ge,  
 G. Gidofalvi,  M. Gimferrer,  M. Goldey,  Montgomery Gray,  J. Gomes,  
 C. Gonzalez-Espinoza,  S. Gulania,  A. Gunina,  J. A. Gyamfi,  
 M. W. D. Hanson-Heine,  P. H. P. Harbach,  A. W. Hauser,  M. F. Herbst,  
 M. Hernandez Vera,  M. Hodecker,  Z. C. Holden,  S. Houck,  Xunkun Huang,  
 Kerwin Hui,  B. C. Huynh,  K. Ikeda,  M. Ivanov,  Nayanthara K. Jayadev,  
 Hyunjun Ji,  Zuxin Jin,  Hanjie Jiang,  Subrata Jana,  B. Kaduk,  
 S. Kaehler,  R. Kang,  K. Khistyaev,  Jaehoon Kim,  Yongbin Kim,  
 P. Klunzinger,  Z. Koczor-Benda,  Joong Hoon Koh,  D. Kosenkov,  
 Saikiran Kotaru,  L. Koulias,  T. Kowalczyk,  C. M. Krauter,  K. Kue,  
 A. Kunitsa,  T. Kus,  A. Landau,  K. V. Lawler,  D. Lefrancois,  S. Lehtola,  
 Rain Li,  Shaozhi Li,  Tao E. Li,  Yi-Pei Li,  Jiashu Liang,  M. Liebenthal,  
 Hung-Hsuan Lin,  You-Sheng Lin,  Fenglai Liu,  Kuan-Yu Liu,  Xiao Liu,  
 M. Loipersberger,  A. Luenser,  C. Malbon,  Aniket Mandal,  Manisha,  
 A. Manjanath,  P. Manohar,  E. Mansoor,  S. F. Manzer,  Shan-Ping Mao,  
 A. V. Marenich,  T. Markovich,  S. Mason,  F. Matz,  S. A. Maurer,  
 Samuel May,  Alexandra McIsaac,  P. F. McLaughlin,  M. F. S. J. Menger,  
 J.-M. Mewes,  S. A. Mewes,  P. Morgante,  Mohammad Mostafanejad,  
 Madhubani Mukherjee,  J. W. Mullinax,  Quyen Nguyen,  Avik Kumar Ojha,  
 K. J. Oosterbaan,  Eno Paenurk,  Xiaoliang Pan,  G. Paran,  V. Parravicini,  
 Alexander C. Paul,  Suranjan K. Paul,  F. Pavosevic,  Zheng Pei,  S. Prager,  
 E. I. Proynov,  E. Ramos,  B. Rana,  A. E. Rask,  A. Rettig,  R. M. Richard,  
 F. Rob,  E. Rossomme,  T. Scheele,  M. Scheurer,  M. Schneider,  
 P. E. Schneider,  Tim K. Schramm,  N. Sergueev,  S. M. Sharada,  
 Hengyuan Shen,  W. Skomorowski,  D. W. Small,  C. J. Stein,  
 Alistair J. Sterling,  Yingli Su,  Yu-Chuan Su,  E. J. Sundstrom,  
 J. Talbot,  Zhen Tao,  J. Thirman,  Hung-Yi Tsai,  T. Tsuchimochi,  
 N. M. Tubman,  C. Utku,  S. P. Veccham,  O. Vydrov,  Rahel Weiss,  
 J. Wenzel,  Jonathan Wong,  J. Witte,  H. Wu,  Yanze Wu,  A. Yamada,  
 Chou-Hsun Yang,  Kun Yao,  S. Yeganeh,  S. R. Yost,  Qi Yu,  A. Zech,  
 F. Zeller,  Chongxiao Zhao,  Igor Ying Zhang,  Xing Zhang,  Yu Zhang,  
 D. Zuev,  A. Aspuru-Guzik,  A. T. Bell,  N. A. Besley,  K. B. Bravaya,  
 B. R. Brooks,  D. Casanova,  Jeng-Da Chai,  Hsing-Ta Chen,  S. Coriani,  
 C. J. Cramer,  A. E. DePrince, III,  R. A. DiStasio Jr.,  A. Dreuw,  
 B. D. Dunietz,  T. R. Furlani,  W. A. Goddard III,  S. Grimme,  
 S. Hammes-Schiffer,  T. Head-Gordon,  W. J. Hehre,  Chao-Ping Hsu,  
 T.-C. Jagau,  Yousung Jung,  A. Klamt,  Jing Kong,  D. S. Lambrecht,  
 Xiangyuan Li,  WanZhen Liang,  N. J. Mayhall,  C. W. McCurdy,  J. B. Neaton,  
 T. Neudecker,  C. Ochsenfeld,  J. A. Parkhill,  R. Peverati,  
 V. A. Rassolov,  Haisheng Ren,  Yihan Shao,  L. V. Slipchenko,  
 R. P. Steele,  J. E. Subotnik,  A. J. W. Thom,  A. Tkatchenko,  
 D. G. Truhlar,  T. Van Voorhis,  Fan Wang,  T. A. Wesolowski,  K. B. Whaley,  
 H. L. Woodcock III,  P. M. Zimmerman,  S. Faraji,  P. M. W. Gill,  
 M. Head-Gordon,  J. M. Herbert,  A. I. Krylov

 Contributors to earlier versions of Q-Chem not listed above: 
 R. D. Adamson,  B. Austin,  R. Baer,  J. Baker,  G. J. O. Beran,  
 K. Brandhorst,  S. T. Brown,  E. F. C. Byrd,  Arup K. Chakraborty,  
 G. K. L. Chan,  Chun-Min Chang,  Yunqing Chen,  C.-L. Cheng,  
 Siu Hung Chien,  D. M. Chipman,  D. L. Crittenden,  H. Dachsel,  
 R. J. Doerksen,  A. D. Dutoi,  R. G. Edgar,  J. Fosso-Tande,  
 L. Fusti-Molnar,  D. Ghosh,  A. Ghysels,  A. Golubeva-Zadorozhnaya,  
 J. Gonthier,  M. S. Gordon,  S. R. Gwaltney,  G. Hawkins,  J. E. Herr,  
 A. Heyden,  S. Hirata,  E. G. Hohenstein,  G. Kedziora,  F. J. Keil,  
 C. Kelley,  Jihan Kim,  R. A. King,  R. Z. Khaliullin,  P. P. Korambath,  
 W. Kurlancheek,  A. Laurent,  A. M. Lee,  M. S. Lee,  S. V. Levchenko,  
 Ching Yeh Lin,  D. Liotard,  E. Livshits,  R. C. Lochan,  I. Lotan,  
 L. A. Martinez-Martinez,  P. E. Maslen,  N. Nair,  D. P. O'Neill,  
 D. Neuhauser,  E. Neuscamman,  C. M. Oana,  R. Olivares-Amaya,  R. Olson,  
 T. M. Perrine,  B. Peters,  P. A. Pieniazek,  A. Prociuk,  Y. M. Rhee,  
 J. Ritchie,  M. A. Rohrdanz,  E. Rosta,  N. J. Russ,  H. F. Schaefer III,  
 M. W. Schmidt,  N. E. Schultz,  S. Sharma,  N. Shenvi,  C. D. Sherrill,  
 A. C. Simmonett,  A. Sodt,  T. Stein,  D. Stuck,  K. S. Thanthiriwatte,  
 V. Vanovschi,  L. Vogt,  Tao Wang,  A. Warshel,  M. A. Watson,  
 C. F. Williams,  Q. Wu,  X. Xu,  Jun Yang,  W. Zhang,  Yan Zhao

   Please cite Q-Chem as follows:
  "Software for the frontiers of quantum chemistry:
   An overview of developments in the Q-Chem 5 package"
   J. Chem. Phys. 155, 084801 (2021)
   https://doi.org/10.1063/5.0055522 (open access)

 Q-Chem 6.2.0 for Intel X86 EM64T Linux

 Parts of Q-Chem use Armadillo 9.900.5 (Nocturnal Misbehaviour).
 http://arma.sourceforge.net/

 Q-Chem begins on Thu Jan 30 23:48:37 2025  

 Host: 
0

     Scratch files written to /data/brussel/103/vsc10365/activedata/TDDFTAnthocyanidines/qchem3260726//
 May224 |scratch|qcdevops|jenkins|workspace|build_RNUM -1
 Processing $rem in /apps/brussel/RL8/skylake/software/Q-Chem/6.2.0/config/preferences:
 Processing $rem in /user/brussel/103/vsc10365/.qchemrc:
 Symmetry turned off for PCM/SM12/SMD calculation

 Checking the input file for inconsistencies... 	...done.

--------------------------------------------------------------
User input:
--------------------------------------------------------------
$comment
TDDFT calculation of peonidin Q1 structure
nprocs=16
mem=64gb
$end

$molecule
0 1
C   -4.9311757    1.2284675   -0.1030305
C   -4.8680605   -0.0385768    0.4921057
C   -3.6643921   -0.5088664    0.9780084
C   -2.4929992    0.2776743    0.8803312
C   -2.6164571    1.5386639    0.2823210
C   -3.8077681    2.0372601   -0.2138474
C   -1.2120388   -0.1122313    1.3353750
C   -0.1280729    0.7077089    1.1979290
C   -0.2698793    1.9973886    0.5970614
O   -1.5144813    2.3289294    0.1714845
C    0.6965355    3.0039031    0.3888134
C    0.2874917    4.2692161   -0.1457495
C    1.1807933    5.2775577   -0.3566000
C    2.5994343    5.1159957   -0.0616423
C    2.9778525    3.8388005    0.4598734
C    2.0795611    2.8335650    0.6809449
O   -6.1036359    1.7172183   -0.5981019
H   -5.7613166   -0.6475606    0.5668685
O   -3.5388657   -1.7305148    1.5644986
H   -3.8591551    3.0141304   -0.6722907
H   -1.0792158   -1.0778218    1.8068131
O    1.1072376    0.3382067    1.6387656
H   -0.7547258    4.4242275   -0.3732099
O    0.8585473    6.5114783   -0.8449395
O    3.4263097    6.0523202   -0.2577818
H    2.4342900    1.8962739    1.0728200
H   -6.8145799    1.0716228   -0.4757004
H   -4.3951369   -2.1823780    1.5785359
H    1.0573130   -0.5451534    2.0329131
C   -0.5104186    6.7799448   -1.1495695
H   -0.5415343    7.8076704   -1.5034548
H   -1.1369232    6.6803504   -0.2601292
H   -0.8767931    6.1126468   -1.9331157
H    4.0274398    3.6892119    0.6829703
$end

$rem
BASIS  =  def2-ma-TZVP
MEM_STATIC  =  2000
MEM_TOTAL  =  64000
METHOD  =  CAM-B3LYP
SOLVENT_METHOD = pcm
SYMMETRY_IGNORE  =  1
CIS_N_ROOTS = 7
CIS_SINGLETS = true
CIS_TRIPLETS = true
CISTR_PRINT = true
RPA = true
PRINT_ORBITALS = true
SCF_PRINT = 1
SCF_FINAL_PRINT = 2
PRINT_GENERAL_BASIS = true
CISTR_PRINT = true
PRINT_RADII_GYRE = true
MULTIPOLE_ORDER = 5
CIS_AMPL_PRINT = 5
CIS_AMPL_ANAL = true
STATE_ANALYSIS = true
$end

$pcm
Theory   CPCM
Method   SWIG
Solver   Inversion
Radii    Bondi
$end

$solvent
Dielectric         78.39
OpticalDielectric  1.777849
$end


--------------------------------------------------------------
 ----------------------------------------------------------------
             Standard Nuclear Orientation (Angstroms)
    I     Atom           X                Y                Z
 ----------------------------------------------------------------
    1      C      -4.9311757000     1.2284675000    -0.1030305000
    2      C      -4.8680605000    -0.0385768000     0.4921057000
    3      C      -3.6643921000    -0.5088664000     0.9780084000
    4      C      -2.4929992000     0.2776743000     0.8803312000
    5      C      -2.6164571000     1.5386639000     0.2823210000
    6      C      -3.8077681000     2.0372601000    -0.2138474000
    7      C      -1.2120388000    -0.1122313000     1.3353750000
    8      C      -0.1280729000     0.7077089000     1.1979290000
    9      C      -0.2698793000     1.9973886000     0.5970614000
   10      O      -1.5144813000     2.3289294000     0.1714845000
   11      C       0.6965355000     3.0039031000     0.3888134000
   12      C       0.2874917000     4.2692161000    -0.1457495000
   13      C       1.1807933000     5.2775577000    -0.3566000000
   14      C       2.5994343000     5.1159957000    -0.0616423000
   15      C       2.9778525000     3.8388005000     0.4598734000
   16      C       2.0795611000     2.8335650000     0.6809449000
   17      O      -6.1036359000     1.7172183000    -0.5981019000
   18      H      -5.7613166000    -0.6475606000     0.5668685000
   19      O      -3.5388657000    -1.7305148000     1.5644986000
   20      H      -3.8591551000     3.0141304000    -0.6722907000
   21      H      -1.0792158000    -1.0778218000     1.8068131000
   22      O       1.1072376000     0.3382067000     1.6387656000
   23      H      -0.7547258000     4.4242275000    -0.3732099000
   24      O       0.8585473000     6.5114783000    -0.8449395000
   25      O       3.4263097000     6.0523202000    -0.2577818000
   26      H       2.4342900000     1.8962739000     1.0728200000
   27      H      -6.8145799000     1.0716228000    -0.4757004000
   28      H      -4.3951369000    -2.1823780000     1.5785359000
   29      H       1.0573130000    -0.5451534000     2.0329131000
   30      C      -0.5104186000     6.7799448000    -1.1495695000
   31      H      -0.5415343000     7.8076704000    -1.5034548000
   32      H      -1.1369232000     6.6803504000    -0.2601292000
   33      H      -0.8767931000     6.1126468000    -1.9331157000
   34      H       4.0274398000     3.6892119000     0.6829703000
 ----------------------------------------------------------------
 Nuclear Repulsion Energy =        1701.84777555 hartrees
 There are       78 alpha and       78 beta electrons
 Requested basis set is def2-ma-TZVP
 Basis set in general basis input format:
-----------------------------------------------------------------------
$basis
C    0
S    6    1.000000
   1.35753497E+04    2.22458144E-04 
   2.03523337E+03    1.72327383E-03 
   4.63225624E+02    8.92557153E-03 
   1.31200196E+02    3.57279845E-02 
   4.28530159E+01    1.10762599E-01 
   1.55841858E+01    2.42956276E-01 
S    2    1.000000
   6.20671385E+00    4.14402634E-01 
   2.57648965E+00    2.37449687E-01 
S    1    1.000000
   5.76963394E-01    1.00000000E+00 
S    1    1.000000
   2.29728314E-01    1.00000000E+00 
S    1    1.000000
   9.51644400E-02    1.00000000E+00 
S    1    1.000000
   4.84754014E-02    1.00000000E+00 
P    4    1.000000
   3.46972322E+01    5.33336578E-03 
   7.95826228E+00    3.58641091E-02 
   2.37808269E+00    1.42158733E-01 
   8.14332082E-01    3.42704718E-01 
P    1    1.000000
   2.88875473E-01    4.64458224E-01 
P    1    1.000000
   1.00568237E-01    2.49557899E-01 
D    1    1.000000
   1.09700000E+00    1.00000000E+00 
D    1    1.000000
   3.18000000E-01    1.00000000E+00 
F    1    1.000000
   7.61000000E-01    1.00000000E+00 
****
C    0
S    6    1.000000
   1.35753497E+04    2.22458144E-04 
   2.03523337E+03    1.72327383E-03 
   4.63225624E+02    8.92557153E-03 
   1.31200196E+02    3.57279845E-02 
   4.28530159E+01    1.10762599E-01 
   1.55841858E+01    2.42956276E-01 
S    2    1.000000
   6.20671385E+00    4.14402634E-01 
   2.57648965E+00    2.37449687E-01 
S    1    1.000000
   5.76963394E-01    1.00000000E+00 
S    1    1.000000
   2.29728314E-01    1.00000000E+00 
S    1    1.000000
   9.51644400E-02    1.00000000E+00 
S    1    1.000000
   4.84754014E-02    1.00000000E+00 
P    4    1.000000
   3.46972322E+01    5.33336578E-03 
   7.95826228E+00    3.58641091E-02 
   2.37808269E+00    1.42158733E-01 
   8.14332082E-01    3.42704718E-01 
P    1    1.000000
   2.88875473E-01    4.64458224E-01 
P    1    1.000000
   1.00568237E-01    2.49557899E-01 
D    1    1.000000
   1.09700000E+00    1.00000000E+00 
D    1    1.000000
   3.18000000E-01    1.00000000E+00 
F    1    1.000000
   7.61000000E-01    1.00000000E+00 
****
C    0
S    6    1.000000
   1.35753497E+04    2.22458144E-04 
   2.03523337E+03    1.72327383E-03 
   4.63225624E+02    8.92557153E-03 
   1.31200196E+02    3.57279845E-02 
   4.28530159E+01    1.10762599E-01 
   1.55841858E+01    2.42956276E-01 
S    2    1.000000
   6.20671385E+00    4.14402634E-01 
   2.57648965E+00    2.37449687E-01 
S    1    1.000000
   5.76963394E-01    1.00000000E+00 
S    1    1.000000
   2.29728314E-01    1.00000000E+00 
S    1    1.000000
   9.51644400E-02    1.00000000E+00 
S    1    1.000000
   4.84754014E-02    1.00000000E+00 
P    4    1.000000
   3.46972322E+01    5.33336578E-03 
   7.95826228E+00    3.58641091E-02 
   2.37808269E+00    1.42158733E-01 
   8.14332082E-01    3.42704718E-01 
P    1    1.000000
   2.88875473E-01    4.64458224E-01 
P    1    1.000000
   1.00568237E-01    2.49557899E-01 
D    1    1.000000
   1.09700000E+00    1.00000000E+00 
D    1    1.000000
   3.18000000E-01    1.00000000E+00 
F    1    1.000000
   7.61000000E-01    1.00000000E+00 
****
C    0
S    6    1.000000
   1.35753497E+04    2.22458144E-04 
   2.03523337E+03    1.72327383E-03 
   4.63225624E+02    8.92557153E-03 
   1.31200196E+02    3.57279845E-02 
   4.28530159E+01    1.10762599E-01 
   1.55841858E+01    2.42956276E-01 
S    2    1.000000
   6.20671385E+00    4.14402634E-01 
   2.57648965E+00    2.37449687E-01 
S    1    1.000000
   5.76963394E-01    1.00000000E+00 
S    1    1.000000
   2.29728314E-01    1.00000000E+00 
S    1    1.000000
   9.51644400E-02    1.00000000E+00 
S    1    1.000000
   4.84754014E-02    1.00000000E+00 
P    4    1.000000
   3.46972322E+01    5.33336578E-03 
   7.95826228E+00    3.58641091E-02 
   2.37808269E+00    1.42158733E-01 
   8.14332082E-01    3.42704718E-01 
P    1    1.000000
   2.88875473E-01    4.64458224E-01 
P    1    1.000000
   1.00568237E-01    2.49557899E-01 
D    1    1.000000
   1.09700000E+00    1.00000000E+00 
D    1    1.000000
   3.18000000E-01    1.00000000E+00 
F    1    1.000000
   7.61000000E-01    1.00000000E+00 
****
C    0
S    6    1.000000
   1.35753497E+04    2.22458144E-04 
   2.03523337E+03    1.72327383E-03 
   4.63225624E+02    8.92557153E-03 
   1.31200196E+02    3.57279845E-02 
   4.28530159E+01    1.10762599E-01 
   1.55841858E+01    2.42956276E-01 
S    2    1.000000
   6.20671385E+00    4.14402634E-01 
   2.57648965E+00    2.37449687E-01 
S    1    1.000000
   5.76963394E-01    1.00000000E+00 
S    1    1.000000
   2.29728314E-01    1.00000000E+00 
S    1    1.000000
   9.51644400E-02    1.00000000E+00 
S    1    1.000000
   4.84754014E-02    1.00000000E+00 
P    4    1.000000
   3.46972322E+01    5.33336578E-03 
   7.95826228E+00    3.58641091E-02 
   2.37808269E+00    1.42158733E-01 
   8.14332082E-01    3.42704718E-01 
P    1    1.000000
   2.88875473E-01    4.64458224E-01 
P    1    1.000000
   1.00568237E-01    2.49557899E-01 
D    1    1.000000
   1.09700000E+00    1.00000000E+00 
D    1    1.000000
   3.18000000E-01    1.00000000E+00 
F    1    1.000000
   7.61000000E-01    1.00000000E+00 
****
C    0
S    6    1.000000
   1.35753497E+04    2.22458144E-04 
   2.03523337E+03    1.72327383E-03 
   4.63225624E+02    8.92557153E-03 
   1.31200196E+02    3.57279845E-02 
   4.28530159E+01    1.10762599E-01 
   1.55841858E+01    2.42956276E-01 
S    2    1.000000
   6.20671385E+00    4.14402634E-01 
   2.57648965E+00    2.37449687E-01 
S    1    1.000000
   5.76963394E-01    1.00000000E+00 
S    1    1.000000
   2.29728314E-01    1.00000000E+00 
S    1    1.000000
   9.51644400E-02    1.00000000E+00 
S    1    1.000000
   4.84754014E-02    1.00000000E+00 
P    4    1.000000
   3.46972322E+01    5.33336578E-03 
   7.95826228E+00    3.58641091E-02 
   2.37808269E+00    1.42158733E-01 
   8.14332082E-01    3.42704718E-01 
P    1    1.000000
   2.88875473E-01    4.64458224E-01 
P    1    1.000000
   1.00568237E-01    2.49557899E-01 
D    1    1.000000
   1.09700000E+00    1.00000000E+00 
D    1    1.000000
   3.18000000E-01    1.00000000E+00 
F    1    1.000000
   7.61000000E-01    1.00000000E+00 
****
C    0
S    6    1.000000
   1.35753497E+04    2.22458144E-04 
   2.03523337E+03    1.72327383E-03 
   4.63225624E+02    8.92557153E-03 
   1.31200196E+02    3.57279845E-02 
   4.28530159E+01    1.10762599E-01 
   1.55841858E+01    2.42956276E-01 
S    2    1.000000
   6.20671385E+00    4.14402634E-01 
   2.57648965E+00    2.37449687E-01 
S    1    1.000000
   5.76963394E-01    1.00000000E+00 
S    1    1.000000
   2.29728314E-01    1.00000000E+00 
S    1    1.000000
   9.51644400E-02    1.00000000E+00 
S    1    1.000000
   4.84754014E-02    1.00000000E+00 
P    4    1.000000
   3.46972322E+01    5.33336578E-03 
   7.95826228E+00    3.58641091E-02 
   2.37808269E+00    1.42158733E-01 
   8.14332082E-01    3.42704718E-01 
P    1    1.000000
   2.88875473E-01    4.64458224E-01 
P    1    1.000000
   1.00568237E-01    2.49557899E-01 
D    1    1.000000
   1.09700000E+00    1.00000000E+00 
D    1    1.000000
   3.18000000E-01    1.00000000E+00 
F    1    1.000000
   7.61000000E-01    1.00000000E+00 
****
C    0
S    6    1.000000
   1.35753497E+04    2.22458144E-04 
   2.03523337E+03    1.72327383E-03 
   4.63225624E+02    8.92557153E-03 
   1.31200196E+02    3.57279845E-02 
   4.28530159E+01    1.10762599E-01 
   1.55841858E+01    2.42956276E-01 
S    2    1.000000
   6.20671385E+00    4.14402634E-01 
   2.57648965E+00    2.37449687E-01 
S    1    1.000000
   5.76963394E-01    1.00000000E+00 
S    1    1.000000
   2.29728314E-01    1.00000000E+00 
S    1    1.000000
   9.51644400E-02    1.00000000E+00 
S    1    1.000000
   4.84754014E-02    1.00000000E+00 
P    4    1.000000
   3.46972322E+01    5.33336578E-03 
   7.95826228E+00    3.58641091E-02 
   2.37808269E+00    1.42158733E-01 
   8.14332082E-01    3.42704718E-01 
P    1    1.000000
   2.88875473E-01    4.64458224E-01 
P    1    1.000000
   1.00568237E-01    2.49557899E-01 
D    1    1.000000
   1.09700000E+00    1.00000000E+00 
D    1    1.000000
   3.18000000E-01    1.00000000E+00 
F    1    1.000000
   7.61000000E-01    1.00000000E+00 
****
C    0
S    6    1.000000
   1.35753497E+04    2.22458144E-04 
   2.03523337E+03    1.72327383E-03 
   4.63225624E+02    8.92557153E-03 
   1.31200196E+02    3.57279845E-02 
   4.28530159E+01    1.10762599E-01 
   1.55841858E+01    2.42956276E-01 
S    2    1.000000
   6.20671385E+00    4.14402634E-01 
   2.57648965E+00    2.37449687E-01 
S    1    1.000000
   5.76963394E-01    1.00000000E+00 
S    1    1.000000
   2.29728314E-01    1.00000000E+00 
S    1    1.000000
   9.51644400E-02    1.00000000E+00 
S    1    1.000000
   4.84754014E-02    1.00000000E+00 
P    4    1.000000
   3.46972322E+01    5.33336578E-03 
   7.95826228E+00    3.58641091E-02 
   2.37808269E+00    1.42158733E-01 
   8.14332082E-01    3.42704718E-01 
P    1    1.000000
   2.88875473E-01    4.64458224E-01 
P    1    1.000000
   1.00568237E-01    2.49557899E-01 
D    1    1.000000
   1.09700000E+00    1.00000000E+00 
D    1    1.000000
   3.18000000E-01    1.00000000E+00 
F    1    1.000000
   7.61000000E-01    1.00000000E+00 
****
O    0
S    6    1.000000
   2.70323826E+04    2.17263025E-04 
   4.05238714E+03    1.68386622E-03 
   9.22327227E+02    8.73956163E-03 
   2.61240710E+02    3.52399688E-02 
   8.53546414E+01    1.11535191E-01 
   3.10350352E+01    2.55889540E-01 
S    2    1.000000
   1.22608607E+01    3.97687309E-01 
   4.99870760E+00    2.46278494E-01 
S    1    1.000000
   1.17031082E+00    1.00000000E+00 
S    1    1.000000
   4.64747410E-01    1.00000000E+00 
S    1    1.000000
   1.85045364E-01    1.00000000E+00 
S    1    1.000000
   7.02880263E-02    1.00000000E+00 
P    4    1.000000
   6.32749548E+01    6.06851034E-03 
   1.46270494E+01    4.19125758E-02 
   4.45012235E+00    1.61538411E-01 
   1.52757996E+00    3.57069513E-01 
P    1    1.000000
   5.29351179E-01    4.47942075E-01 
P    1    1.000000
   1.74784213E-01    2.44460697E-01 
P    1    1.000000
   5.11127457E-02    1.00000000E+00 
D    1    1.000000
   2.31400000E+00    1.00000000E+00 
D    1    1.000000
   6.45000000E-01    1.00000000E+00 
F    1    1.000000
   1.42800000E+00    1.00000000E+00 
****
C    0
S    6    1.000000
   1.35753497E+04    2.22458144E-04 
   2.03523337E+03    1.72327383E-03 
   4.63225624E+02    8.92557153E-03 
   1.31200196E+02    3.57279845E-02 
   4.28530159E+01    1.10762599E-01 
   1.55841858E+01    2.42956276E-01 
S    2    1.000000
   6.20671385E+00    4.14402634E-01 
   2.57648965E+00    2.37449687E-01 
S    1    1.000000
   5.76963394E-01    1.00000000E+00 
S    1    1.000000
   2.29728314E-01    1.00000000E+00 
S    1    1.000000
   9.51644400E-02    1.00000000E+00 
S    1    1.000000
   4.84754014E-02    1.00000000E+00 
P    4    1.000000
   3.46972322E+01    5.33336578E-03 
   7.95826228E+00    3.58641091E-02 
   2.37808269E+00    1.42158733E-01 
   8.14332082E-01    3.42704718E-01 
P    1    1.000000
   2.88875473E-01    4.64458224E-01 
P    1    1.000000
   1.00568237E-01    2.49557899E-01 
D    1    1.000000
   1.09700000E+00    1.00000000E+00 
D    1    1.000000
   3.18000000E-01    1.00000000E+00 
F    1    1.000000
   7.61000000E-01    1.00000000E+00 
****
C    0
S    6    1.000000
   1.35753497E+04    2.22458144E-04 
   2.03523337E+03    1.72327383E-03 
   4.63225624E+02    8.92557153E-03 
   1.31200196E+02    3.57279845E-02 
   4.28530159E+01    1.10762599E-01 
   1.55841858E+01    2.42956276E-01 
S    2    1.000000
   6.20671385E+00    4.14402634E-01 
   2.57648965E+00    2.37449687E-01 
S    1    1.000000
   5.76963394E-01    1.00000000E+00 
S    1    1.000000
   2.29728314E-01    1.00000000E+00 
S    1    1.000000
   9.51644400E-02    1.00000000E+00 
S    1    1.000000
   4.84754014E-02    1.00000000E+00 
P    4    1.000000
   3.46972322E+01    5.33336578E-03 
   7.95826228E+00    3.58641091E-02 
   2.37808269E+00    1.42158733E-01 
   8.14332082E-01    3.42704718E-01 
P    1    1.000000
   2.88875473E-01    4.64458224E-01 
P    1    1.000000
   1.00568237E-01    2.49557899E-01 
D    1    1.000000
   1.09700000E+00    1.00000000E+00 
D    1    1.000000
   3.18000000E-01    1.00000000E+00 
F    1    1.000000
   7.61000000E-01    1.00000000E+00 
****
C    0
S    6    1.000000
   1.35753497E+04    2.22458144E-04 
   2.03523337E+03    1.72327383E-03 
   4.63225624E+02    8.92557153E-03 
   1.31200196E+02    3.57279845E-02 
   4.28530159E+01    1.10762599E-01 
   1.55841858E+01    2.42956276E-01 
S    2    1.000000
   6.20671385E+00    4.14402634E-01 
   2.57648965E+00    2.37449687E-01 
S    1    1.000000
   5.76963394E-01    1.00000000E+00 
S    1    1.000000
   2.29728314E-01    1.00000000E+00 
S    1    1.000000
   9.51644400E-02    1.00000000E+00 
S    1    1.000000
   4.84754014E-02    1.00000000E+00 
P    4    1.000000
   3.46972322E+01    5.33336578E-03 
   7.95826228E+00    3.58641091E-02 
   2.37808269E+00    1.42158733E-01 
   8.14332082E-01    3.42704718E-01 
P    1    1.000000
   2.88875473E-01    4.64458224E-01 
P    1    1.000000
   1.00568237E-01    2.49557899E-01 
D    1    1.000000
   1.09700000E+00    1.00000000E+00 
D    1    1.000000
   3.18000000E-01    1.00000000E+00 
F    1    1.000000
   7.61000000E-01    1.00000000E+00 
****
C    0
S    6    1.000000
   1.35753497E+04    2.22458144E-04 
   2.03523337E+03    1.72327383E-03 
   4.63225624E+02    8.92557153E-03 
   1.31200196E+02    3.57279845E-02 
   4.28530159E+01    1.10762599E-01 
   1.55841858E+01    2.42956276E-01 
S    2    1.000000
   6.20671385E+00    4.14402634E-01 
   2.57648965E+00    2.37449687E-01 
S    1    1.000000
   5.76963394E-01    1.00000000E+00 
S    1    1.000000
   2.29728314E-01    1.00000000E+00 
S    1    1.000000
   9.51644400E-02    1.00000000E+00 
S    1    1.000000
   4.84754014E-02    1.00000000E+00 
P    4    1.000000
   3.46972322E+01    5.33336578E-03 
   7.95826228E+00    3.58641091E-02 
   2.37808269E+00    1.42158733E-01 
   8.14332082E-01    3.42704718E-01 
P    1    1.000000
   2.88875473E-01    4.64458224E-01 
P    1    1.000000
   1.00568237E-01    2.49557899E-01 
D    1    1.000000
   1.09700000E+00    1.00000000E+00 
D    1    1.000000
   3.18000000E-01    1.00000000E+00 
F    1    1.000000
   7.61000000E-01    1.00000000E+00 
****
C    0
S    6    1.000000
   1.35753497E+04    2.22458144E-04 
   2.03523337E+03    1.72327383E-03 
   4.63225624E+02    8.92557153E-03 
   1.31200196E+02    3.57279845E-02 
   4.28530159E+01    1.10762599E-01 
   1.55841858E+01    2.42956276E-01 
S    2    1.000000
   6.20671385E+00    4.14402634E-01 
   2.57648965E+00    2.37449687E-01 
S    1    1.000000
   5.76963394E-01    1.00000000E+00 
S    1    1.000000
   2.29728314E-01    1.00000000E+00 
S    1    1.000000
   9.51644400E-02    1.00000000E+00 
S    1    1.000000
   4.84754014E-02    1.00000000E+00 
P    4    1.000000
   3.46972322E+01    5.33336578E-03 
   7.95826228E+00    3.58641091E-02 
   2.37808269E+00    1.42158733E-01 
   8.14332082E-01    3.42704718E-01 
P    1    1.000000
   2.88875473E-01    4.64458224E-01 
P    1    1.000000
   1.00568237E-01    2.49557899E-01 
D    1    1.000000
   1.09700000E+00    1.00000000E+00 
D    1    1.000000
   3.18000000E-01    1.00000000E+00 
F    1    1.000000
   7.61000000E-01    1.00000000E+00 
****
C    0
S    6    1.000000
   1.35753497E+04    2.22458144E-04 
   2.03523337E+03    1.72327383E-03 
   4.63225624E+02    8.92557153E-03 
   1.31200196E+02    3.57279845E-02 
   4.28530159E+01    1.10762599E-01 
   1.55841858E+01    2.42956276E-01 
S    2    1.000000
   6.20671385E+00    4.14402634E-01 
   2.57648965E+00    2.37449687E-01 
S    1    1.000000
   5.76963394E-01    1.00000000E+00 
S    1    1.000000
   2.29728314E-01    1.00000000E+00 
S    1    1.000000
   9.51644400E-02    1.00000000E+00 
S    1    1.000000
   4.84754014E-02    1.00000000E+00 
P    4    1.000000
   3.46972322E+01    5.33336578E-03 
   7.95826228E+00    3.58641091E-02 
   2.37808269E+00    1.42158733E-01 
   8.14332082E-01    3.42704718E-01 
P    1    1.000000
   2.88875473E-01    4.64458224E-01 
P    1    1.000000
   1.00568237E-01    2.49557899E-01 
D    1    1.000000
   1.09700000E+00    1.00000000E+00 
D    1    1.000000
   3.18000000E-01    1.00000000E+00 
F    1    1.000000
   7.61000000E-01    1.00000000E+00 
****
O    0
S    6    1.000000
   2.70323826E+04    2.17263025E-04 
   4.05238714E+03    1.68386622E-03 
   9.22327227E+02    8.73956163E-03 
   2.61240710E+02    3.52399688E-02 
   8.53546414E+01    1.11535191E-01 
   3.10350352E+01    2.55889540E-01 
S    2    1.000000
   1.22608607E+01    3.97687309E-01 
   4.99870760E+00    2.46278494E-01 
S    1    1.000000
   1.17031082E+00    1.00000000E+00 
S    1    1.000000
   4.64747410E-01    1.00000000E+00 
S    1    1.000000
   1.85045364E-01    1.00000000E+00 
S    1    1.000000
   7.02880263E-02    1.00000000E+00 
P    4    1.000000
   6.32749548E+01    6.06851034E-03 
   1.46270494E+01    4.19125758E-02 
   4.45012235E+00    1.61538411E-01 
   1.52757996E+00    3.57069513E-01 
P    1    1.000000
   5.29351179E-01    4.47942075E-01 
P    1    1.000000
   1.74784213E-01    2.44460697E-01 
P    1    1.000000
   5.11127457E-02    1.00000000E+00 
D    1    1.000000
   2.31400000E+00    1.00000000E+00 
D    1    1.000000
   6.45000000E-01    1.00000000E+00 
F    1    1.000000
   1.42800000E+00    1.00000000E+00 
****
H    0
S    3    1.000000
   3.40613410E+01    6.02519780E-03 
   5.12357460E+00    4.50210940E-02 
   1.16466260E+00    2.01897260E-01 
S    1    1.000000
   3.27230410E-01    1.00000000E+00 
S    1    1.000000
   1.03072410E-01    1.00000000E+00 
P    1    1.000000
   8.00000000E-01    1.00000000E+00 
****
O    0
S    6    1.000000
   2.70323826E+04    2.17263025E-04 
   4.05238714E+03    1.68386622E-03 
   9.22327227E+02    8.73956163E-03 
   2.61240710E+02    3.52399688E-02 
   8.53546414E+01    1.11535191E-01 
   3.10350352E+01    2.55889540E-01 
S    2    1.000000
   1.22608607E+01    3.97687309E-01 
   4.99870760E+00    2.46278494E-01 
S    1    1.000000
   1.17031082E+00    1.00000000E+00 
S    1    1.000000
   4.64747410E-01    1.00000000E+00 
S    1    1.000000
   1.85045364E-01    1.00000000E+00 
S    1    1.000000
   7.02880263E-02    1.00000000E+00 
P    4    1.000000
   6.32749548E+01    6.06851034E-03 
   1.46270494E+01    4.19125758E-02 
   4.45012235E+00    1.61538411E-01 
   1.52757996E+00    3.57069513E-01 
P    1    1.000000
   5.29351179E-01    4.47942075E-01 
P    1    1.000000
   1.74784213E-01    2.44460697E-01 
P    1    1.000000
   5.11127457E-02    1.00000000E+00 
D    1    1.000000
   2.31400000E+00    1.00000000E+00 
D    1    1.000000
   6.45000000E-01    1.00000000E+00 
F    1    1.000000
   1.42800000E+00    1.00000000E+00 
****
H    0
S    3    1.000000
   3.40613410E+01    6.02519780E-03 
   5.12357460E+00    4.50210940E-02 
   1.16466260E+00    2.01897260E-01 
S    1    1.000000
   3.27230410E-01    1.00000000E+00 
S    1    1.000000
   1.03072410E-01    1.00000000E+00 
P    1    1.000000
   8.00000000E-01    1.00000000E+00 
****
H    0
S    3    1.000000
   3.40613410E+01    6.02519780E-03 
   5.12357460E+00    4.50210940E-02 
   1.16466260E+00    2.01897260E-01 
S    1    1.000000
   3.27230410E-01    1.00000000E+00 
S    1    1.000000
   1.03072410E-01    1.00000000E+00 
P    1    1.000000
   8.00000000E-01    1.00000000E+00 
****
O    0
S    6    1.000000
   2.70323826E+04    2.17263025E-04 
   4.05238714E+03    1.68386622E-03 
   9.22327227E+02    8.73956163E-03 
   2.61240710E+02    3.52399688E-02 
   8.53546414E+01    1.11535191E-01 
   3.10350352E+01    2.55889540E-01 
S    2    1.000000
   1.22608607E+01    3.97687309E-01 
   4.99870760E+00    2.46278494E-01 
S    1    1.000000
   1.17031082E+00    1.00000000E+00 
S    1    1.000000
   4.64747410E-01    1.00000000E+00 
S    1    1.000000
   1.85045364E-01    1.00000000E+00 
S    1    1.000000
   7.02880263E-02    1.00000000E+00 
P    4    1.000000
   6.32749548E+01    6.06851034E-03 
   1.46270494E+01    4.19125758E-02 
   4.45012235E+00    1.61538411E-01 
   1.52757996E+00    3.57069513E-01 
P    1    1.000000
   5.29351179E-01    4.47942075E-01 
P    1    1.000000
   1.74784213E-01    2.44460697E-01 
P    1    1.000000
   5.11127457E-02    1.00000000E+00 
D    1    1.000000
   2.31400000E+00    1.00000000E+00 
D    1    1.000000
   6.45000000E-01    1.00000000E+00 
F    1    1.000000
   1.42800000E+00    1.00000000E+00 
****
H    0
S    3    1.000000
   3.40613410E+01    6.02519780E-03 
   5.12357460E+00    4.50210940E-02 
   1.16466260E+00    2.01897260E-01 
S    1    1.000000
   3.27230410E-01    1.00000000E+00 
S    1    1.000000
   1.03072410E-01    1.00000000E+00 
P    1    1.000000
   8.00000000E-01    1.00000000E+00 
****
O    0
S    6    1.000000
   2.70323826E+04    2.17263025E-04 
   4.05238714E+03    1.68386622E-03 
   9.22327227E+02    8.73956163E-03 
   2.61240710E+02    3.52399688E-02 
   8.53546414E+01    1.11535191E-01 
   3.10350352E+01    2.55889540E-01 
S    2    1.000000
   1.22608607E+01    3.97687309E-01 
   4.99870760E+00    2.46278494E-01 
S    1    1.000000
   1.17031082E+00    1.00000000E+00 
S    1    1.000000
   4.64747410E-01    1.00000000E+00 
S    1    1.000000
   1.85045364E-01    1.00000000E+00 
S    1    1.000000
   7.02880263E-02    1.00000000E+00 
P    4    1.000000
   6.32749548E+01    6.06851034E-03 
   1.46270494E+01    4.19125758E-02 
   4.45012235E+00    1.61538411E-01 
   1.52757996E+00    3.57069513E-01 
P    1    1.000000
   5.29351179E-01    4.47942075E-01 
P    1    1.000000
   1.74784213E-01    2.44460697E-01 
P    1    1.000000
   5.11127457E-02    1.00000000E+00 
D    1    1.000000
   2.31400000E+00    1.00000000E+00 
D    1    1.000000
   6.45000000E-01    1.00000000E+00 
F    1    1.000000
   1.42800000E+00    1.00000000E+00 
****
O    0
S    6    1.000000
   2.70323826E+04    2.17263025E-04 
   4.05238714E+03    1.68386622E-03 
   9.22327227E+02    8.73956163E-03 
   2.61240710E+02    3.52399688E-02 
   8.53546414E+01    1.11535191E-01 
   3.10350352E+01    2.55889540E-01 
S    2    1.000000
   1.22608607E+01    3.97687309E-01 
   4.99870760E+00    2.46278494E-01 
S    1    1.000000
   1.17031082E+00    1.00000000E+00 
S    1    1.000000
   4.64747410E-01    1.00000000E+00 
S    1    1.000000
   1.85045364E-01    1.00000000E+00 
S    1    1.000000
   7.02880263E-02    1.00000000E+00 
P    4    1.000000
   6.32749548E+01    6.06851034E-03 
   1.46270494E+01    4.19125758E-02 
   4.45012235E+00    1.61538411E-01 
   1.52757996E+00    3.57069513E-01 
P    1    1.000000
   5.29351179E-01    4.47942075E-01 
P    1    1.000000
   1.74784213E-01    2.44460697E-01 
P    1    1.000000
   5.11127457E-02    1.00000000E+00 
D    1    1.000000
   2.31400000E+00    1.00000000E+00 
D    1    1.000000
   6.45000000E-01    1.00000000E+00 
F    1    1.000000
   1.42800000E+00    1.00000000E+00 
****
H    0
S    3    1.000000
   3.40613410E+01    6.02519780E-03 
   5.12357460E+00    4.50210940E-02 
   1.16466260E+00    2.01897260E-01 
S    1    1.000000
   3.27230410E-01    1.00000000E+00 
S    1    1.000000
   1.03072410E-01    1.00000000E+00 
P    1    1.000000
   8.00000000E-01    1.00000000E+00 
****
H    0
S    3    1.000000
   3.40613410E+01    6.02519780E-03 
   5.12357460E+00    4.50210940E-02 
   1.16466260E+00    2.01897260E-01 
S    1    1.000000
   3.27230410E-01    1.00000000E+00 
S    1    1.000000
   1.03072410E-01    1.00000000E+00 
P    1    1.000000
   8.00000000E-01    1.00000000E+00 
****
H    0
S    3    1.000000
   3.40613410E+01    6.02519780E-03 
   5.12357460E+00    4.50210940E-02 
   1.16466260E+00    2.01897260E-01 
S    1    1.000000
   3.27230410E-01    1.00000000E+00 
S    1    1.000000
   1.03072410E-01    1.00000000E+00 
P    1    1.000000
   8.00000000E-01    1.00000000E+00 
****
H    0
S    3    1.000000
   3.40613410E+01    6.02519780E-03 
   5.12357460E+00    4.50210940E-02 
   1.16466260E+00    2.01897260E-01 
S    1    1.000000
   3.27230410E-01    1.00000000E+00 
S    1    1.000000
   1.03072410E-01    1.00000000E+00 
P    1    1.000000
   8.00000000E-01    1.00000000E+00 
****
C    0
S    6    1.000000
   1.35753497E+04    2.22458144E-04 
   2.03523337E+03    1.72327383E-03 
   4.63225624E+02    8.92557153E-03 
   1.31200196E+02    3.57279845E-02 
   4.28530159E+01    1.10762599E-01 
   1.55841858E+01    2.42956276E-01 
S    2    1.000000
   6.20671385E+00    4.14402634E-01 
   2.57648965E+00    2.37449687E-01 
S    1    1.000000
   5.76963394E-01    1.00000000E+00 
S    1    1.000000
   2.29728314E-01    1.00000000E+00 
S    1    1.000000
   9.51644400E-02    1.00000000E+00 
S    1    1.000000
   4.84754014E-02    1.00000000E+00 
P    4    1.000000
   3.46972322E+01    5.33336578E-03 
   7.95826228E+00    3.58641091E-02 
   2.37808269E+00    1.42158733E-01 
   8.14332082E-01    3.42704718E-01 
P    1    1.000000
   2.88875473E-01    4.64458224E-01 
P    1    1.000000
   1.00568237E-01    2.49557899E-01 
D    1    1.000000
   1.09700000E+00    1.00000000E+00 
D    1    1.000000
   3.18000000E-01    1.00000000E+00 
F    1    1.000000
   7.61000000E-01    1.00000000E+00 
****
H    0
S    3    1.000000
   3.40613410E+01    6.02519780E-03 
   5.12357460E+00    4.50210940E-02 
   1.16466260E+00    2.01897260E-01 
S    1    1.000000
   3.27230410E-01    1.00000000E+00 
S    1    1.000000
   1.03072410E-01    1.00000000E+00 
P    1    1.000000
   8.00000000E-01    1.00000000E+00 
****
H    0
S    3    1.000000
   3.40613410E+01    6.02519780E-03 
   5.12357460E+00    4.50210940E-02 
   1.16466260E+00    2.01897260E-01 
S    1    1.000000
   3.27230410E-01    1.00000000E+00 
S    1    1.000000
   1.03072410E-01    1.00000000E+00 
P    1    1.000000
   8.00000000E-01    1.00000000E+00 
****
H    0
S    3    1.000000
   3.40613410E+01    6.02519780E-03 
   5.12357460E+00    4.50210940E-02 
   1.16466260E+00    2.01897260E-01 
S    1    1.000000
   3.27230410E-01    1.00000000E+00 
S    1    1.000000
   1.03072410E-01    1.00000000E+00 
P    1    1.000000
   8.00000000E-01    1.00000000E+00 
****
H    0
S    3    1.000000
   3.40613410E+01    6.02519780E-03 
   5.12357460E+00    4.50210940E-02 
   1.16466260E+00    2.01897260E-01 
S    1    1.000000
   3.27230410E-01    1.00000000E+00 
S    1    1.000000
   1.03072410E-01    1.00000000E+00 
P    1    1.000000
   8.00000000E-01    1.00000000E+00 
****
$end
-----------------------------------------------------------------------
 There are 318 shells and 794 basis functions

 Total QAlloc Memory Limit  64000 MB
 Mega-Array Size      1956 MB
 MEM_STATIC part      2000 MB

 User-specified dielectric constants (eps_0 = 78.39, eps_inf = 1.78)
 Using C-PCM dielectric factor f(eps) = (eps-1)/eps = 0.987243
 Static dielectric constant eps = 78.39
 Discretize the solute cavity surface with Lebedev spheres
	Using 110 Lebedev grid points for each H atom
	Using 194 Lebedev grid points for other atoms
	Atomic van der Waals radii (Bondi set) will be scaled by 1.20
 Using smooth SwiG surface discretization
 Remove points where switching function is < 1.0e-08
 Keep 2280 surface tesserae and discard 3308 interior tesserae
 Molecular Surface Area = 317.362 Angst**2

 A cutoff of  1.0D-12 yielded  36018 shell pairs
 There are    210736 function pairs (    267032 Cartesian)
 Smallest overlap matrix eigenvalue = 3.81E-06

 Scale SEOQF with 1.000000e-02/1.000000e-02/1.000000e-01

 Standard Electronic Orientation quadrupole field applied
 Nucleus-field energy     =     0.0000000058 hartrees
 Guess from superposition of atomic densities
 Warning:  Energy on first SCF cycle will be non-variational
 SAD guess density has 156.000000 electrons

 -----------------------------------------------------------------------
  General SCF calculation program by
  Eric Jon Sundstrom, Paul Horn, Yuezhi Mao, Dmitri Zuev, Alec White,
  David Stuck, Shaama M.S., Shane Yost, Joonho Lee, David Small,
  Daniel Levine, Susi Lehtola, Hugh Burton, Evgeny Epifanovsky,
  Bang C. Huynh
 -----------------------------------------------------------------------
 Exchange:     0.1900 Hartree-Fock + 0.3500 B88 + 0.4600 muB88 + LR-HF
 Correlation:  0.1900 VWN5 + 0.8100 LYP
 Using SG-1 standard quadrature grid
 using 16 threads for integral computing
 -------------------------------------------------------
 OpenMP Integral computing Module                
 Release: version 1.0, May 2013, Q-Chem Inc. Pittsburgh 
 -------------------------------------------------------
 C-PCM solvent model [f = (eps-1)/eps], solve by matrix inversion
 DFT Correlation          Energy =  -6.33901105293776
 DFT Exchange             Energy = -96.74867130926469
 HF Exchange              Energy = -39.83166962394305
 One-Electron             Energy = -4823.87923188949844
 SCRF wf-dependent energy Energy =   0.00000000000000
 Total Coulomb            Energy = 2190.23754304817021
 Nuclear repulsion Energy = 1701.84777555626783
 A restricted SCF calculation will be
 performed using DIIS
 SCF converges when DIIS error is below 1.0e-08
 DFT Correlation          Energy =  -6.33901105293776
 DFT Exchange             Energy = -96.74867130926469
 HF Exchange              Energy = -39.83166962394305
 One-Electron             Energy = -4823.87923188949844
 SCRF wf-dependent energy Energy =   0.00000000000000
 Total Coulomb            Energy = 2190.23754304817021
 ---------------------------------------
  Cycle       Energy         DIIS error
 ---------------------------------------
 DFT Correlation          Energy =  -6.42506440423695
 DFT Exchange             Energy = -98.83979915986484
 HF Exchange              Energy = -38.45019599047084
 One-Electron             Energy = -4844.51979184630181
 SCRF wf-dependent energy Energy =  -0.98791036742614
 Total Coulomb            Energy = 2219.49337547387722
 Nuclear repulsion Energy = 1701.84777555626783
    1   -1074.7132652712      2.05e-02  
 DFT Correlation          Energy =  -6.36574772757029
 DFT Exchange             Energy = -97.13161329016415
 HF Exchange              Energy = -37.97073051320038
 One-Electron             Energy = -4832.93164833685478
 SCRF wf-dependent energy Energy =   1.21323101494522
 Total Coulomb            Energy = 2203.61195447643468
 Nuclear repulsion Energy = 1701.84777555626783
    2   -1067.8816107382      2.18e-03  
 DFT Correlation          Energy =  -6.39167462565915
 DFT Exchange             Energy = -97.94585390386005
 HF Exchange              Energy = -38.21902999419920
 One-Electron             Energy = -4834.87936406108111
 SCRF wf-dependent energy Energy =  -0.93787631684768
 Total Coulomb            Energy = 2208.34918671653895
 Nuclear repulsion Energy = 1701.84777555626783
    3   -1067.7267788201      2.82e-03  
 DFT Correlation          Energy =  -6.39424374692510
 DFT Exchange             Energy = -97.98756404406471
 HF Exchange              Energy = -38.22909827761137
 One-Electron             Energy = -4837.32266149389397
 SCRF wf-dependent energy Energy =  -0.33958555155232
 Total Coulomb            Energy = 2210.23184616156459
 Nuclear repulsion Energy = 1701.84777555626783
    4   -1068.1768366288      5.42e-04  
 DFT Correlation          Energy =  -6.39389467885880
 DFT Exchange             Energy = -97.97769941383643
 HF Exchange              Energy = -38.22745601245143
 One-Electron             Energy = -4837.22532346462776
 SCRF wf-dependent energy Energy =  -0.35376020464719
 Total Coulomb            Energy = 2210.13488722729471
 Nuclear repulsion Energy = 1701.84777555626783
    5   -1068.1935313962      1.84e-04  
 DFT Correlation          Energy =  -6.39362503352996
 DFT Exchange             Energy = -97.97454305725987
 HF Exchange              Energy = -38.22754634286058
 One-Electron             Energy = -4837.02754248430119
 SCRF wf-dependent energy Energy =  -0.38623217756981
 Total Coulomb            Energy = 2209.96596124177768
 Nuclear repulsion Energy = 1701.84777555626783
    6   -1068.1954709909      6.05e-05  
 DFT Correlation          Energy =  -6.39361163426806
 DFT Exchange             Energy = -97.97385370574365
 HF Exchange              Energy = -38.22765363623655
 One-Electron             Energy = -4837.04578331305311
 SCRF wf-dependent energy Energy =  -0.37605538157140
 Total Coulomb            Energy = 2209.97338957875218
 Nuclear repulsion Energy = 1701.84777555626783
    7   -1068.1957522975      1.84e-05  
 DFT Correlation          Energy =  -6.39367632635484
 DFT Exchange             Energy = -97.97531212182847
 HF Exchange              Energy = -38.22819109889911
 One-Electron             Energy = -4837.08016811594280
 SCRF wf-dependent energy Energy =  -0.37156562547852
 Total Coulomb            Energy = 2210.00533145492000
 Nuclear repulsion Energy = 1701.84777555626783
    8   -1068.1957925359      7.64e-06  
 DFT Correlation          Energy =  -6.39366993198896
 DFT Exchange             Energy = -97.97531612398708
 HF Exchange              Energy = -38.22829845525379
 One-Electron             Energy = -4837.08350402951601
 SCRF wf-dependent energy Energy =  -0.36856254347936
 Total Coulomb            Energy = 2210.00576416286776
 Nuclear repulsion Energy = 1701.84777555626783
    9   -1068.1958062773      3.57e-06  
 DFT Correlation          Energy =  -6.39366622878197
 DFT Exchange             Energy = -97.97516121521703
 HF Exchange              Energy = -38.22827938802168
 One-Electron             Energy = -4837.08165091919000
 SCRF wf-dependent energy Energy =  -0.36838094168593
 Total Coulomb            Energy = 2210.00355087318894
 Nuclear repulsion Energy = 1701.84777555626783
   10   -1068.1958113651      1.88e-06  
 DFT Correlation          Energy =  -6.39367180132577
 DFT Exchange             Energy = -97.97533006366851
 HF Exchange              Energy = -38.22832618416898
 One-Electron             Energy = -4837.08609015697584
 SCRF wf-dependent energy Energy =  -0.36734871194062
 Total Coulomb            Energy = 2210.00717885944732
 Nuclear repulsion Energy = 1701.84777555626783
   11   -1068.1958122634      7.32e-07  
 DFT Correlation          Energy =  -6.39367192638804
 DFT Exchange             Energy = -97.97530841942249
 HF Exchange              Energy = -38.22831884273035
 One-Electron             Energy = -4837.08637082949008
 SCRF wf-dependent energy Energy =  -0.36717942962559
 Total Coulomb            Energy = 2210.00726135592140
 Nuclear repulsion Energy = 1701.84777555626783
   12   -1068.1958125024      3.95e-07  
 DFT Correlation          Energy =  -6.39367190596266
 DFT Exchange             Energy = -97.97531848514706
 HF Exchange              Energy = -38.22832093516933
 One-Electron             Energy = -4837.08637802750127
 SCRF wf-dependent energy Energy =  -0.36713575678027
 Total Coulomb            Energy = 2210.00723701237712
 Nuclear repulsion Energy = 1701.84777555626783
   13   -1068.1958125355      1.85e-07  
 DFT Correlation          Energy =  -6.39367192029856
 DFT Exchange             Energy = -97.97531668584122
 HF Exchange              Energy = -38.22832012773211
 One-Electron             Energy = -4837.08646417043656
 SCRF wf-dependent energy Energy =  -0.36710594638180
 Total Coulomb            Energy = 2210.00729075249274
 Nuclear repulsion Energy = 1701.84777555626783
   14   -1068.1958125419      3.93e-08  
 DFT Correlation          Energy =  -6.39367194801317
 DFT Exchange             Energy = -97.97531747646569
 HF Exchange              Energy = -38.22832021844869
 One-Electron             Energy = -4837.08647664410273
 SCRF wf-dependent energy Energy =  -0.36710152325350
 Total Coulomb            Energy = 2210.00729971203646
 Nuclear repulsion Energy = 1701.84777555626783
   15   -1068.1958125419      1.91e-08  
   16   -1068.1958125420      4.97e-09  Convergence criterion met
 ---------------------------------------
 DFT Correlation          Energy =  -6.39367194801317
 DFT Exchange             Energy = -97.97531747646569
 HF Exchange              Energy = -38.22832021844869
 One-Electron             Energy = -4837.08647664410273
 SCRF wf-dependent energy Energy =  -0.36710152325350
 Total Coulomb            Energy = 2210.00729971203646
 Final Alpha MO Eigenvalues
            1           2           3           4           5           6
    1 -19.2943738 -19.2475825 -19.2470430 -19.2449404 -19.2307193 -19.1590659
            7           8           9          10          11          12
    1 -10.3674460 -10.3455808 -10.3410589 -10.3405032 -10.3381249 -10.3162521
           13          14          15          16          17          18
    1 -10.3049545 -10.2889316 -10.2867720 -10.2786917 -10.2678578 -10.2601468
           19          20          21          22          23          24
    1 -10.2592762 -10.2552688 -10.2532122 -10.2378291  -1.2220482  -1.1635660
           25          26          27          28          29          30
    1  -1.1625638  -1.1579248  -1.1477381  -1.0787567  -0.9713675  -0.9454381
           31          32          33          34          35          36
    1  -0.9178074  -0.8821767  -0.8453436  -0.8373084  -0.8208862  -0.7859017
           37          38          39          40          41          42
    1  -0.7637797  -0.7515983  -0.7188614  -0.6960578  -0.6827257  -0.6636587
           43          44          45          46          47          48
    1  -0.6454401  -0.6333254  -0.6219709  -0.6024936  -0.5857566  -0.5726965
           49          50          51          52          53          54
    1  -0.5629755  -0.5611132  -0.5514745  -0.5407560  -0.5383761  -0.5192709
           55          56          57          58          59          60
    1  -0.5160249  -0.5150344  -0.5044738  -0.4957085  -0.4934073  -0.4849906
           61          62          63          64          65          66
    1  -0.4819253  -0.4810110  -0.4743490  -0.4634648  -0.4500794  -0.4402933
           67          68          69          70          71          72
    1  -0.4355796  -0.4216884  -0.4209930  -0.4026711  -0.3988145  -0.3927330
           73          74          75          76          77          78
    1  -0.3624708  -0.3220221  -0.3139775  -0.3041269  -0.2877501  -0.2388997
           79          80          81          82          83          84
    1  -0.0673639   0.0079253   0.0274094   0.0326157   0.0373962   0.0376626
           85          86          87          88          89          90
    1   0.0463746   0.0479823   0.0525218   0.0613461   0.0632986   0.0689127
           91          92          93          94          95          96
    1   0.0757085   0.0773750   0.0847857   0.0906189   0.0937179   0.0973173
           97          98          99         100         101         102
    1   0.1019828   0.1068637   0.1098875   0.1120686   0.1200714   0.1218503
          103         104         105         106         107         108
    1   0.1280581   0.1342636   0.1423046   0.1423838   0.1449548   0.1523499
          109         110         111         112         113         114
    1   0.1545388   0.1636282   0.1680743   0.1793203   0.1845401   0.1881280
          115         116         117         118         119         120
    1   0.1895349   0.1931863   0.1960328   0.2103688   0.2138248   0.2160652
          121         122         123         124         125         126
    1   0.2177095   0.2266001   0.2303193   0.2333496   0.2335986   0.2391551
          127         128         129         130         131         132
    1   0.2423605   0.2463433   0.2541124   0.2615185   0.2636265   0.2693356
          133         134         135         136         137         138
    1   0.2714645   0.2781459   0.2795831   0.2821947   0.2911876   0.2934283
          139         140         141         142         143         144
    1   0.3004177   0.3060320   0.3070016   0.3118358   0.3132026   0.3150502
          145         146         147         148         149         150
    1   0.3189003   0.3215843   0.3244765   0.3292257   0.3335903   0.3363480
          151         152         153         154         155         156
    1   0.3373556   0.3508670   0.3572437   0.3576942   0.3604819   0.3665700
          157         158         159         160         161         162
    1   0.3681872   0.3771181   0.3788853   0.3810416   0.3846399   0.3894825
          163         164         165         166         167         168
    1   0.3938760   0.4018486   0.4081097   0.4100090   0.4187406   0.4237826
          169         170         171         172         173         174
    1   0.4298017   0.4303439   0.4316304   0.4404073   0.4413848   0.4468874
          175         176         177         178         179         180
    1   0.4547297   0.4563484   0.4638847   0.4687922   0.4697992   0.4753549
          181         182         183         184         185         186
    1   0.4794466   0.4821070   0.4836217   0.4902681   0.4915413   0.4940963
          187         188         189         190         191         192
    1   0.4961985   0.5024701   0.5093950   0.5175127   0.5205328   0.5238669
          193         194         195         196         197         198
    1   0.5307154   0.5347680   0.5349279   0.5402150   0.5504649   0.5517866
          199         200         201         202         203         204
    1   0.5546238   0.5654017   0.5762342   0.5798944   0.5826969   0.5853660
          205         206         207         208         209         210
    1   0.5896689   0.5930080   0.6092314   0.6172104   0.6221104   0.6305585
          211         212         213         214         215         216
    1   0.6349888   0.6373000   0.6399090   0.6410576   0.6438234   0.6534604
          217         218         219         220         221         222
    1   0.6567590   0.6595735   0.6662675   0.6692227   0.6744749   0.6777740
          223         224         225         226         227         228
    1   0.6900296   0.6944562   0.6989673   0.7001759   0.7111247   0.7133394
          229         230         231         232         233         234
    1   0.7239458   0.7284092   0.7314539   0.7381613   0.7440044   0.7491265
          235         236         237         238         239         240
    1   0.7558695   0.7612872   0.7641942   0.7719518   0.7785128   0.7843149
          241         242         243         244         245         246
    1   0.7886667   0.7972790   0.7983846   0.7999959   0.8053055   0.8103334
          247         248         249         250         251         252
    1   0.8199107   0.8214884   0.8284596   0.8301509   0.8444395   0.8451589
          253         254         255         256         257         258
    1   0.8491729   0.8553992   0.8634748   0.8757936   0.8808432   0.8837837
          259         260         261         262         263         264
    1   0.8945002   0.9053137   0.9077578   0.9161249   0.9214268   0.9280021
          265         266         267         268         269         270
    1   0.9381009   0.9453225   0.9524948   0.9552268   0.9714351   0.9769882
          271         272         273         274         275         276
    1   0.9926852   0.9993340   1.0228084   1.0292458   1.0393518   1.0478646
          277         278         279         280         281         282
    1   1.0543644   1.0605338   1.0735317   1.0756224   1.0865826   1.0906247
          283         284         285         286         287         288
    1   1.1006898   1.1079012   1.1156647   1.1191364   1.1255576   1.1346003
          289         290         291         292         293         294
    1   1.1414790   1.1448923   1.1599779   1.1716230   1.1792432   1.1802779
          295         296         297         298         299         300
    1   1.1896688   1.1997041   1.2061244   1.2083533   1.2165454   1.2198336
          301         302         303         304         305         306
    1   1.2408336   1.2458381   1.2526353   1.2701537   1.2711200   1.2841730
          307         308         309         310         311         312
    1   1.2850555   1.2958618   1.3146990   1.3292186   1.3327240   1.3398860
          313         314         315         316         317         318
    1   1.3444780   1.3643218   1.3716301   1.3796419   1.3898289   1.3976258
          319         320         321         322         323         324
    1   1.4057705   1.4140903   1.4272419   1.4370570   1.4486108   1.4583482
          325         326         327         328         329         330
    1   1.4607216   1.4760552   1.4814269   1.4929883   1.5022069   1.5088775
          331         332         333         334         335         336
    1   1.5249332   1.5273855   1.5327856   1.5412334   1.5431189   1.5546327
          337         338         339         340         341         342
    1   1.5564430   1.5690750   1.5796979   1.5880414   1.5928907   1.5935307
          343         344         345         346         347         348
    1   1.6095772   1.6109826   1.6119609   1.6155007   1.6400846   1.6416784
          349         350         351         352         353         354
    1   1.6568569   1.6596937   1.6717344   1.6849604   1.6898275   1.6936390
          355         356         357         358         359         360
    1   1.7049805   1.7135183   1.7186516   1.7203796   1.7286106   1.7318272
          361         362         363         364         365         366
    1   1.7403347   1.7443742   1.7612821   1.7666269   1.7723536   1.7748139
          367         368         369         370         371         372
    1   1.7828373   1.7851045   1.8000311   1.8080774   1.8375154   1.8485027
          373         374         375         376         377         378
    1   1.8585007   1.8629023   1.8753384   1.8930687   1.9033074   1.9151374
          379         380         381         382         383         384
    1   1.9159112   1.9232134   1.9358719   1.9370618   1.9471164   1.9525427
          385         386         387         388         389         390
    1   1.9753823   1.9817170   1.9856397   1.9961684   2.0005186   2.0115037
          391         392         393         394         395         396
    1   2.0255222   2.0287348   2.0382342   2.0522360   2.0677873   2.0688317
          397         398         399         400         401         402
    1   2.0849128   2.0917839   2.0974904   2.1052992   2.1095700   2.1201293
          403         404         405         406         407         408
    1   2.1375150   2.1488178   2.1500531   2.1617111   2.1771715   2.1834370
          409         410         411         412         413         414
    1   2.1868151   2.1910317   2.2028516   2.2061479   2.2173204   2.2244282
          415         416         417         418         419         420
    1   2.2336584   2.2403583   2.2501520   2.2525775   2.2726277   2.2800860
          421         422         423         424         425         426
    1   2.2915248   2.2949148   2.2974964   2.3150330   2.3402953   2.3448757
          427         428         429         430         431         432
    1   2.3528993   2.3540984   2.3705996   2.3750715   2.3872528   2.3949510
          433         434         435         436         437         438
    1   2.4096718   2.4194212   2.4407715   2.4473085   2.4574107   2.4629845
          439         440         441         442         443         444
    1   2.4721688   2.4898909   2.4914800   2.5124345   2.5179219   2.5349957
          445         446         447         448         449         450
    1   2.5400647   2.5438379   2.5573699   2.5727454   2.5812535   2.5843917
          451         452         453         454         455         456
    1   2.5997442   2.6061138   2.6109129   2.6280712   2.6400065   2.6473889
          457         458         459         460         461         462
    1   2.6555768   2.6715210   2.6801728   2.6836007   2.6887767   2.6954699
          463         464         465         466         467         468
    1   2.7031544   2.7156748   2.7215642   2.7275905   2.7448538   2.7520910
          469         470         471         472         473         474
    1   2.7599486   2.7657004   2.7840211   2.7883946   2.7940657   2.7954451
          475         476         477         478         479         480
    1   2.8023700   2.8056932   2.8114661   2.8257805   2.8363495   2.8418507
          481         482         483         484         485         486
    1   2.8598922   2.8663899   2.8725216   2.8759588   2.8783910   2.8853869
          487         488         489         490         491         492
    1   2.8911857   2.9031917   2.9055940   2.9144620   2.9189058   2.9382156
          493         494         495         496         497         498
    1   2.9397557   2.9419858   2.9547415   2.9621488   2.9683334   2.9718281
          499         500         501         502         503         504
    1   2.9799522   2.9900015   3.0030944   3.0066477   3.0136454   3.0218856
          505         506         507         508         509         510
    1   3.0291687   3.0324469   3.0368439   3.0404562   3.0495458   3.0523487
          511         512         513         514         515         516
    1   3.0767251   3.0816218   3.0877828   3.0964885   3.1043899   3.1070397
          517         518         519         520         521         522
    1   3.1298251   3.1310735   3.1354391   3.1413639   3.1522945   3.1595575
          523         524         525         526         527         528
    1   3.1739273   3.1772353   3.1926022   3.1945371   3.1979523   3.2062755
          529         530         531         532         533         534
    1   3.2166841   3.2223798   3.2259676   3.2309277   3.2420019   3.2483129
          535         536         537         538         539         540
    1   3.2572964   3.2595134   3.2633214   3.2700725   3.2733465   3.2799485
          541         542         543         544         545         546
    1   3.2913097   3.2934755   3.3086467   3.3100166   3.3128773   3.3294442
          547         548         549         550         551         552
    1   3.3365012   3.3425643   3.3466929   3.3567386   3.3635139   3.3699318
          553         554         555         556         557         558
    1   3.3782752   3.3865720   3.3979745   3.4148167   3.4194959   3.4231683
          559         560         561         562         563         564
    1   3.4270552   3.4333825   3.4351342   3.4448566   3.4525778   3.4594816
          565         566         567         568         569         570
    1   3.4672730   3.4767664   3.4812118   3.4828688   3.4848665   3.4906686
          571         572         573         574         575         576
    1   3.4993012   3.5039954   3.5079351   3.5122555   3.5265710   3.5342694
          577         578         579         580         581         582
    1   3.5363495   3.5417885   3.5432280   3.5697285   3.5815143   3.5909026
          583         584         585         586         587         588
    1   3.5915652   3.6074014   3.6104228   3.6144449   3.6237523   3.6289113
          589         590         591         592         593         594
    1   3.6367065   3.6425394   3.6469131   3.6712337   3.6757581   3.6875215
          595         596         597         598         599         600
    1   3.6886835   3.6962284   3.7139291   3.7222505   3.7456601   3.7507030
          601         602         603         604         605         606
    1   3.7591142   3.7736560   3.7887405   3.8022901   3.8056959   3.8357924
          607         608         609         610         611         612
    1   3.8617901   3.8738146   3.8879760   3.8951487   3.9150002   3.9365719
          613         614         615         616         617         618
    1   3.9469177   3.9667163   3.9692891   3.9835785   4.0089422   4.0416671
          619         620         621         622         623         624
    1   4.0447489   4.0496180   4.0567129   4.0845679   4.0867892   4.0986216
          625         626         627         628         629         630
    1   4.1182169   4.1253298   4.1327220   4.1434307   4.1442207   4.1727261
          631         632         633         634         635         636
    1   4.1932131   4.1979599   4.2317691   4.2390462   4.2450172   4.2557041
          637         638         639         640         641         642
    1   4.2608471   4.2664881   4.2732960   4.2833804   4.3034211   4.3172853
          643         644         645         646         647         648
    1   4.3247028   4.3272297   4.3383075   4.3489528   4.3758843   4.4096573
          649         650         651         652         653         654
    1   4.4191974   4.4416681   4.4507989   4.4650974   4.4740413   4.4835274
          655         656         657         658         659         660
    1   4.5081747   4.5169844   4.5434748   4.5494385   4.5825526   4.6178360
          661         662         663         664         665         666
    1   4.6373760   4.6421807   4.6513369   4.6731366   4.6775849   4.6875103
          667         668         669         670         671         672
    1   4.6969559   4.7022422   4.7206640   4.7671991   4.7929305   4.8251199
          673         674         675         676         677         678
    1   4.8441643   4.8618262   4.8968720   4.9201175   4.9410262   4.9464119
          679         680         681         682         683         684
    1   4.9503319   4.9919738   5.0076914   5.0438800   5.0669469   5.0998507
          685         686         687         688         689         690
    1   5.1383019   5.1495142   5.1560293   5.1981344   5.2096049   5.2698132
          691         692         693         694         695         696
    1   5.2968863   5.3020567   5.3111422   5.3144569   5.3189740   5.3454295
          697         698         699         700         701         702
    1   5.3626665   5.3723329   5.3817708   5.3913131   5.4226401   5.4674473
          703         704         705         706         707         708
    1   5.5026371   5.5222025   5.5263745   5.5309394   5.5374106   5.5582930
          709         710         711         712         713         714
    1   5.5594086   5.5918324   5.5996738   5.6373629   5.6727213   5.6766035
          715         716         717         718         719         720
    1   5.7352159   5.7920961   5.8049749   5.8157273   5.8185661   5.8591856
          721         722         723         724         725         726
    1   5.8665281   5.8966452   5.9541079   5.9958273   6.0506342   6.0718064
          727         728         729         730         731         732
    1   6.0989026   6.1119920   6.1558850   6.2371796   6.2568440   6.3162378
          733         734         735         736         737         738
    1   6.3924443   6.4156912   6.4502169   6.4653944   6.4696247   6.4722499
          739         740         741         742         743         744
    1   6.4775490   6.4824492   6.4860417   6.4984750   6.5682154   6.6611652
          745         746         747         748         749         750
    1   6.6869051   6.7068507   6.7312136   6.7740256   6.7787795   6.7874814
          751         752         753         754         755         756
    1   6.8139559   6.8838196   6.8881591   6.9270612   6.9293389   6.9453284
          757         758         759         760         761         762
    1   6.9522804   6.9603013   6.9774738   7.0442709   7.1017650   7.1241308
          763         764         765         766         767         768
    1   7.1560220   7.2330374   7.2365106   7.2994924   7.3710205   7.4037884
          769         770         771         772         773         774
    1   7.4185097   7.5062126   7.5354654   7.5843482  22.4448870  22.4810200
          775         776         777         778         779         780
    1  22.6027584  22.8059791  22.8345099  22.8418309  22.8972897  22.9361270
          781         782         783         784         785         786
    1  23.0034761  23.0438416  23.0692583  23.1328184  23.2070371  23.3678184
          787         788         789         790         791         792
    1  23.6027705  23.6781343  44.1021096  44.1186121  44.1461058  44.1693207
          793         794
    1  44.4112694  44.7191500
 SCF time:   CPU 5461.82s  wall 457.00s 
 DFT Correlation          Energy =  -6.39367194801317
 DFT Exchange             Energy = -97.97531747646569
 HF Exchange              Energy = -38.22832021844869
 One-Electron             Energy = -4837.08647664410273
 SCRF wf-dependent energy Energy =  -0.36710152325350
 Total Coulomb            Energy = 2210.00729971203646
 Nuclear repulsion Energy = 1701.84777555626783

************** Final PCM Free Energy Summary **************
 G_electrostatic  =      -0.06815085 hartree =     -42.76530618 kcal/mol
 G_cavitation     =       0.00000000 hartree =       0.00000000 kcal/mol
 G_dispersion     =       0.00000000 hartree =       0.00000000 kcal/mol
 G_repulsion      =       0.00000000 hartree =       0.00000000 kcal/mol
 --------------------------------------------------
 Non-electrostatic Free Energy =       0.00000000 hartree =       0.00000000 kcal/mol
 Total                         =      -0.06815085 hartree =     -42.76530618 kcal/mol
 --------------------------------------------------
 SCF Energy (H0 + V/2)                       =   -1068.19581254 
 Solute Internal Energy (H0)                 =   -1068.12766169 
 Total Free Energy (H0 + V/2 + non-elec)     =   -1068.19581254 hartree
                                             = -670302.99252458 kcal/mol
***********************************************************

 SCF   energy = -1068.19581254
 Total energy = -1068.19581254
 MAX_CIS_SUBSPACE fits in available memory
 Direct TDDFT/TDA calculation will be performed
 Exchange:     0.1900 Hartree-Fock + 0.3500 B88 + 0.4600 muB88 + LR-HF
 Correlation:  0.1900 VWN5 + 0.8100 LYP
 Using SG-1 standard quadrature grid
 Triplet excitation energies requested
 Singlet excitation energies requested
 Adding PCM contribution to the XC response (LR-PCM)
 Optical dielectric constant (eps_inf) =  1.78
 CIS energy converged when residual is below 10e- 6
 ---------------------------------------------------
 Iter    Rts Conv    Rts Left    Ttl Dev     Max Dev
 ---------------------------------------------------
   1         0           7      0.000941    0.000165
   2         0           7      0.000340    0.000065
   3         0           7      0.000149    0.000038
   4         0           7      0.000190    0.000129
   5         1           6      0.000074    0.000047
   6         4           3      0.000044    0.000032
   7         5           2      0.000034    0.000028
   8         6           1      0.000024    0.000021
   9         6           1      0.000020    0.000017
  10         6           1      0.000012    0.000009
  11         6           1      0.000006    0.000003
  12         6           1      0.000004    0.000001
  13         7           0      0.000003    0.000001    Roots Converged
 ---------------------------------------------------
 Triplets done: starting singlet calculation
 ---------------------------------------------------
 Iter    Rts Conv    Rts Left    Ttl Dev     Max Dev
 ---------------------------------------------------
  14         0           7      0.002053    0.000517
  15         0           7      0.000542    0.000117
  16         0           7      0.000286    0.000085
  17         0           7      0.000185    0.000072
  18         0           7      0.000090    0.000038
  19         2           5      0.000057    0.000025
  20         3           4      0.000032    0.000012
  21         4           3      0.000028    0.000017
  22         5           2      0.000023    0.000017
  23         6           1      0.000010    0.000007
  24         6           1      0.000007    0.000003
  25         6           1      0.000005    0.000001
  26         7           0      0.000004    0.000001    Roots Converged
 ---------------------------------------------------
 
 ---------------------------------------------------
         TDDFT/TDA Excitation Energies              
 ---------------------------------------------------

 Excited state   1: excitation energy (eV) =       1.4561
 Total energy for state   1:                 -1068.14230259 au
    Multiplicity: Triplet
    Trans. Mom.:  0.0000 X   0.0000 Y   0.0000 Z
    Strength   :     0.0000000000
    D(   73) --> V(    1) amplitude = -0.0717
    D(   77) --> V(    2) amplitude =  0.0734
    D(   78) --> V(    1) amplitude =  0.9753

 Excited state   2: excitation energy (eV) =       2.7293
 Total energy for state   2:                 -1068.09551137 au
    Multiplicity: Triplet
    Trans. Mom.:  0.0000 X   0.0000 Y   0.0000 Z
    Strength   :     0.0000000000
    D(   73) --> V(    1) amplitude = -0.1901
    D(   74) --> V(    1) amplitude =  0.1915
    D(   76) --> V(    1) amplitude =  0.0767
    D(   77) --> V(    1) amplitude =  0.8283
    D(   77) --> V(    2) amplitude =  0.1286
    D(   78) --> V(    2) amplitude =  0.3643
    D(   78) --> V(    4) amplitude =  0.1287
    D(   78) --> V(   11) amplitude = -0.1026

 Excited state   3: excitation energy (eV) =       2.8162
 Total energy for state   3:                 -1068.09231783 au
    Multiplicity: Singlet
    Trans. Mom.: -3.6875 X  -2.9566 Y   0.4353 Z
    Strength   :     1.5543934674
    D(   77) --> V(    1) amplitude =  0.1464
    D(   78) --> V(    1) amplitude =  0.9660

 Excited state   4: excitation energy (eV) =       3.2305
 Total energy for state   4:                 -1068.07709494 au
    Multiplicity: Triplet
    Trans. Mom.:  0.0000 X   0.0000 Y   0.0000 Z
    Strength   :     0.0000000000
    D(   71) --> V(    1) amplitude = -0.0784
    D(   74) --> V(    1) amplitude = -0.2225
    D(   74) --> V(    8) amplitude =  0.0903
    D(   76) --> V(    1) amplitude =  0.8613
    D(   76) --> V(    2) amplitude = -0.1681
    D(   76) --> V(    4) amplitude = -0.0962
    D(   76) --> V(   11) amplitude =  0.0905
    D(   77) --> V(    2) amplitude = -0.0976
    D(   77) --> V(    4) amplitude = -0.0935
    D(   77) --> V(    8) amplitude =  0.0895
    D(   78) --> V(    2) amplitude = -0.1300
    D(   78) --> V(    8) amplitude = -0.2337

 Excited state   5: excitation energy (eV) =       3.5543
 Total energy for state   5:                 -1068.06519320 au
    Multiplicity: Triplet
    Trans. Mom.:  0.0000 X   0.0000 Y   0.0000 Z
    Strength   :     0.0000000000
    D(   75) --> V(    1) amplitude =  0.8968
    D(   75) --> V(    2) amplitude = -0.2603
    D(   75) --> V(    4) amplitude = -0.1777
    D(   75) --> V(   11) amplitude =  0.2286
    D(   75) --> V(   18) amplitude =  0.1070

 Excited state   6: excitation energy (eV) =       3.6632
 Total energy for state   6:                 -1068.06119302 au
    Multiplicity: Triplet
    Trans. Mom.:  0.0000 X   0.0000 Y   0.0000 Z
    Strength   :     0.0000000000
    D(   74) --> V(    1) amplitude =  0.2643
    D(   74) --> V(    2) amplitude =  0.1875
    D(   74) --> V(   11) amplitude =  0.0767
    D(   76) --> V(    1) amplitude =  0.2128
    D(   76) --> V(    2) amplitude =  0.1027
    D(   77) --> V(    1) amplitude = -0.4415
    D(   77) --> V(    2) amplitude =  0.1002
    D(   77) --> V(    4) amplitude = -0.1299
    D(   78) --> V(    2) amplitude =  0.7472
    D(   78) --> V(   11) amplitude = -0.0899

 Excited state   7: excitation energy (eV) =       3.8080
 Total energy for state   7:                 -1068.05586962 au
    Multiplicity: Singlet
    Trans. Mom.:  0.1935 X   0.2903 Y  -0.0642 Z
    Strength   :     0.0117396064
    D(   74) --> V(    1) amplitude = -0.1861
    D(   76) --> V(    1) amplitude =  0.3078
    D(   77) --> V(    1) amplitude =  0.8984
    D(   78) --> V(    1) amplitude = -0.1256

 Excited state   8: excitation energy (eV) =       3.8512
 Total energy for state   8:                 -1068.05428218 au
    Multiplicity: Triplet
    Trans. Mom.:  0.0000 X   0.0000 Y   0.0000 Z
    Strength   :     0.0000000000
    D(   73) --> V(    1) amplitude = -0.2424
    D(   74) --> V(    1) amplitude =  0.7041
    D(   74) --> V(    2) amplitude = -0.1330
    D(   74) --> V(    4) amplitude =  0.1673
    D(   76) --> V(    1) amplitude =  0.1035
    D(   76) --> V(    4) amplitude =  0.1162
    D(   76) --> V(    8) amplitude =  0.1585
    D(   77) --> V(    2) amplitude = -0.2947
    D(   77) --> V(    4) amplitude = -0.2572
    D(   77) --> V(   11) amplitude = -0.1146
    D(   78) --> V(    2) amplitude = -0.3044
    D(   78) --> V(   11) amplitude = -0.1431

 Excited state   9: excitation energy (eV) =       3.8554
 Total energy for state   9:                 -1068.05412988 au
    Multiplicity: Singlet
    Trans. Mom.:  0.0199 X   0.0206 Y  -0.0025 Z
    Strength   :     0.0000777584
    D(   75) --> V(    1) amplitude =  0.9159
    D(   75) --> V(    2) amplitude = -0.2404
    D(   75) --> V(    4) amplitude = -0.1640
    D(   75) --> V(   11) amplitude =  0.2037
    D(   75) --> V(   18) amplitude =  0.0841

 Excited state  10: excitation energy (eV) =       3.9707
 Total energy for state  10:                 -1068.04989217 au
    Multiplicity: Singlet
    Trans. Mom.: -0.4512 X  -0.4430 Y   0.0752 Z
    Strength   :     0.0394413008
    D(   74) --> V(    4) amplitude =  0.0743
    D(   76) --> V(    1) amplitude =  0.9169
    D(   77) --> V(    1) amplitude = -0.2941
    D(   77) --> V(    2) amplitude = -0.1143
    D(   78) --> V(    2) amplitude = -0.0992
    D(   78) --> V(    4) amplitude =  0.0985

 Excited state  11: excitation energy (eV) =       4.2841
 Total energy for state  11:                 -1068.03837294 au
    Multiplicity: Triplet
    Trans. Mom.:  0.0000 X   0.0000 Y   0.0000 Z
    Strength   :     0.0000000000
    D(   72) --> V(    1) amplitude = -0.2176
    D(   73) --> V(    1) amplitude =  0.1367
    D(   73) --> V(    4) amplitude =  0.1094
    D(   74) --> V(    1) amplitude =  0.1105
    D(   74) --> V(    2) amplitude =  0.1008
    D(   74) --> V(    4) amplitude = -0.1359
    D(   74) --> V(   11) amplitude =  0.0777
    D(   76) --> V(    1) amplitude = -0.1103
    D(   76) --> V(    2) amplitude =  0.1495
    D(   76) --> V(    4) amplitude = -0.1672
    D(   76) --> V(    8) amplitude =  0.0856
    D(   77) --> V(    1) amplitude = -0.1055
    D(   77) --> V(    2) amplitude = -0.3052
    D(   77) --> V(    4) amplitude =  0.4425
    D(   77) --> V(    8) amplitude =  0.2800
    D(   77) --> V(   11) amplitude =  0.1040
    D(   78) --> V(    4) amplitude =  0.4752
    D(   78) --> V(    8) amplitude = -0.3659

 Excited state  12: excitation energy (eV) =       4.5188
 Total energy for state  12:                 -1068.02974926 au
    Multiplicity: Singlet
    Trans. Mom.: -0.0406 X   0.2972 Y  -0.1581 Z
    Strength   :     0.0127272048
    D(   74) --> V(    1) amplitude = -0.4385
    D(   74) --> V(    4) amplitude = -0.0804
    D(   76) --> V(    1) amplitude =  0.0713
    D(   77) --> V(    1) amplitude = -0.1729
    D(   77) --> V(    2) amplitude =  0.1652
    D(   77) --> V(   11) amplitude =  0.0848
    D(   78) --> V(    2) amplitude =  0.8206
    D(   78) --> V(    4) amplitude = -0.1408

 Excited state  13: excitation energy (eV) =       4.7784
 Total energy for state  13:                 -1068.02020976 au
    Multiplicity: Singlet
    Trans. Mom.:  0.4174 X   1.1388 Y  -0.3961 Z
    Strength   :     0.1905942795
    D(   74) --> V(    1) amplitude =  0.6233
    D(   74) --> V(    2) amplitude =  0.1436
    D(   76) --> V(    2) amplitude =  0.1618
    D(   76) --> V(    8) amplitude = -0.1128
    D(   77) --> V(    1) amplitude =  0.1252
    D(   77) --> V(    2) amplitude = -0.3890
    D(   77) --> V(    4) amplitude =  0.1389
[...]
      XZZZ     130.3211   YZZZ     259.1267   ZZZZ    -665.9536
    5th-Order Moments (Debye-Ang^4)
       500   14086.4186    410  -14841.5883    320   -4669.5430
       230  -21230.7738    140  -24535.6105    050  -99038.6055
       401    -124.0262    311      94.6461    221    1058.2500
       131     895.1307    041    3183.0098    302    3627.4166
       212   -2107.3040    122   -1411.0699    032   -8507.5437
       203    -606.0737    113    -418.2385    023    1613.9471
       104     706.0179    014   -1055.1038    005    -919.6814
 -----------------------------------------------------------------
 -----------------------------------------------------------------
                 RPA Excited-State Multipoles, State    4   
                  LMN = < X^L Y^M Z^N >
 -----------------------------------------------------------------
    Charge (ESU x 10^10)
                 0.0000
    Dipole Moment (Debye)
         X     -14.1503      Y     -11.8060      Z       2.1203
       Tot      18.5502
    Quadrupole Moments (Debye-Ang)
        XX    -104.1491     XY     -46.5213     YY    -182.3711
        XZ       2.3627     YZ      -5.3930     ZZ    -124.8004
    Octopole Moments (Debye-Ang^2)
       XXX     -75.1090    XXY    -584.5911    XYY    -297.0257
       YYY   -1348.7933    XXZ      13.1107    XYZ      42.5763
       YYZ     -34.4808    XZZ     120.7401    YZZ    -320.6694
       ZZZ    -113.2824
    Hexadecapole Moments (Debye-Ang^3)
      XXXX   -4445.5003   XXXY    -844.7645   XXYY   -3866.4310
      XYYY   -3308.1939   YYYY  -11848.5893   XXXZ      16.9308
      XXYZ     132.1739   XYYZ     217.0521   YYYZ     220.9745
      XXZZ   -1204.0420   XYZZ    -224.9307   YYZZ   -1608.7915
      XZZZ     133.2279   YZZZ     257.3228   ZZZZ    -664.7184
    5th-Order Moments (Debye-Ang^4)
       500   15364.5049    410  -15254.6004    320   -4936.7468
       230  -21977.3133    140  -25797.5392    050  -97993.8034
       401     -54.5074    311     142.9641    221    1142.3977
       131     978.5161    041    2991.0247    302    3673.4905
       212   -2099.4897    122   -1392.4329    032   -8396.4807
       203    -601.3613    113    -406.5788    023    1607.8833
       104     710.6243    014   -1045.0577    005    -918.3578
 -----------------------------------------------------------------
 -----------------------------------------------------------------
                 RPA Excited-State Multipoles, State    5   
                  LMN = < X^L Y^M Z^N >
 -----------------------------------------------------------------
    Charge (ESU x 10^10)
                 0.0000
    Dipole Moment (Debye)
         X      -8.0029      Y      -6.6019      Z       1.2882
       Tot      10.4542
    Quadrupole Moments (Debye-Ang)
        XX     -79.8601     XY      -2.0089     YY    -131.9603
        XZ      -0.9922     YZ      -9.8375     ZZ    -127.0498
    Octopole Moments (Debye-Ang^2)
       XXX      32.6956    XXY    -410.2047    XYY       3.3135
       YYY    -968.0522    XXZ       2.0356    XYZ      24.0041
       YYZ     -59.4531    XZZ     118.4527    YZZ    -329.3996
       ZZZ    -114.1140
    Hexadecapole Moments (Debye-Ang^3)
      XXXX   -4057.5840   XXXY    -167.4823   XXYY   -2734.5165
      XYYY   -1365.6386   YYYY   -9220.6616   XXXZ     -13.4715
      XXYZ      73.3522   XYYZ     111.4565   YYYZ      75.0943
      XXZZ   -1209.4798   XYZZ    -230.6559   YYZZ   -1643.3008
      XZZZ     128.5943   YZZZ     254.9938   ZZZZ    -671.1035
    5th-Order Moments (Debye-Ang^4)
       500   17095.6841    410  -12671.5546    320    -677.5055
       230  -14819.1990    140  -13446.7515    050  -80561.2973
       401    -165.4854    311     -41.1366    221     799.5435
       131     347.9604    041    2107.3039    302    3673.4988
       212   -2101.9698    122   -1391.2840    032   -8531.5243
       203    -615.9575    113    -426.5169    023    1602.7178
       104     701.5002    014   -1071.3842    005    -921.3766
 -----------------------------------------------------------------
 -----------------------------------------------------------------
                 RPA Excited-State Multipoles, State    6   
                  LMN = < X^L Y^M Z^N >
 -----------------------------------------------------------------
    Charge (ESU x 10^10)
                 0.0000
    Dipole Moment (Debye)
         X     -17.7193      Y     -16.9443      Z       3.4677
       Tot      24.7610
    Quadrupole Moments (Debye-Ang)
        XX     -99.7102     XY     -51.7168     YY    -207.4802
        XZ       0.3577     YZ      -4.3008     ZZ    -123.8172
    Octopole Moments (Debye-Ang^2)
       XXX    -117.6584    XXY    -579.3481    XYY    -302.8000
       YYY   -1475.6117    XXZ       9.6990    XYZ      38.8840
       YYZ     -26.3655    XZZ     116.4528    YZZ    -326.1125
       ZZZ    -109.1405
    Hexadecapole Moments (Debye-Ang^3)
      XXXX   -4294.8408   XXXY    -896.5186   XXYY   -3811.9427
      XYYY   -3254.8398   YYYY  -12503.3742   XXXZ      11.6378
      XXYZ     109.0971   XYYZ     199.2266   YYYZ     274.9126
      XXZZ   -1201.1427   XYZZ    -232.2934   YYZZ   -1637.0342
      XZZZ     127.9361   YZZZ     259.9535   ZZZZ    -659.5843
    5th-Order Moments (Debye-Ang^4)
       500   14379.0895    410  -14893.6115    320   -4837.8823
       230  -21530.9949    140  -25231.8308    050 -101632.8128
       401    -184.2819    311     109.0852    221    1067.5878
       131     929.2837    041    3392.7049    302    3638.7568
       212   -2112.3313    122   -1421.7546    032   -8554.0150
       203    -604.4629    113    -415.4521    023    1625.4767
       104     700.3390    014   -1058.1397    005    -899.3133
 -----------------------------------------------------------------
 -----------------------------------------------------------------
                 RPA Excited-State Multipoles, State    7   
                  LMN = < X^L Y^M Z^N >
 -----------------------------------------------------------------
    Charge (ESU x 10^10)
                -0.0000
    Dipole Moment (Debye)
         X     -22.1508      Y     -17.8981      Z       2.8536
       Tot      28.6207
    Quadrupole Moments (Debye-Ang)
        XX     -84.7960     XY     -56.2085     YY    -214.0469
        XZ      -1.3533     YZ      -4.0889     ZZ    -125.1320
    Octopole Moments (Debye-Ang^2)
       XXX    -180.5200    XXY    -583.2002    XYY    -323.3721
       YYY   -1519.8212    XXZ      22.1012    XYZ      38.5069
       YYZ     -23.2354    XZZ     113.6408    YZZ    -327.7598
       ZZZ    -111.9041
    Hexadecapole Moments (Debye-Ang^3)
      XXXX   -4060.4511   XXXY    -860.5472   XXYY   -3807.6838
      XYYY   -3327.7821   YYYY  -12760.0499   XXXZ     -60.3459
      XXYZ     115.3905   XYYZ     197.3487   YYYZ     292.2897
      XXZZ   -1187.4405   XYZZ    -233.4224   YYZZ   -1642.5141
      XZZZ     125.0063   YZZZ     259.0299   ZZZZ    -666.4176
    5th-Order Moments (Debye-Ang^4)
       500   13539.7210    410  -15270.3712    320   -4906.9329
       230  -21606.2361    140  -25588.4782    050 -103142.5843
       401     221.3180    311      83.2536    221    1094.1572
       131     939.1163    041    3504.7588    302    3565.3829
       212   -2116.5971    122   -1433.2744    032   -8588.1282
       203    -581.1701    113    -414.0380    023    1629.5523
       104     695.0017    014   -1063.3773    005    -916.8389
 -----------------------------------------------------------------
 -----------------------------------------------------------------
                 RPA Excited-State Multipoles, State    8   
                  LMN = < X^L Y^M Z^N >
 -----------------------------------------------------------------
    Charge (ESU x 10^10)
                 0.0000
    Dipole Moment (Debye)
         X     -23.3333      Y     -15.6615      Z       1.8060
       Tot      28.1600
    Quadrupole Moments (Debye-Ang)
        XX     -88.0645     XY     -64.6272     YY    -198.4563
        XZ      -0.0155     YZ      -8.4001     ZZ    -124.8890
    Octopole Moments (Debye-Ang^2)
       XXX    -212.9047    XXY    -593.5600    XYY    -361.1047
       YYY   -1424.0894    XXZ      14.1408    XYZ      39.9066
       YYZ     -42.4390    XZZ     113.1358    YZZ    -325.3658
       ZZZ    -114.3078
    Hexadecapole Moments (Debye-Ang^3)
      XXXX   -4051.3678   XXXY   -1063.0905   XXYY   -3913.2225
      XYYY   -3507.9958   YYYY  -12170.4820   XXXZ     -15.3158
      XXYZ     100.0936   XYYZ     190.0783   YYYZ     186.3292
      XXZZ   -1187.9837   XYZZ    -236.5571   YYZZ   -1625.1149
      XZZZ     128.0818   YZZZ     250.7404   ZZZZ    -667.3464
    5th-Order Moments (Debye-Ang^4)
       500   12827.5409    410  -15046.7025    320   -5667.1303
       230  -22332.0698    140  -26564.2007    050  -99485.0129
       401     -29.9828    311     151.3108    221    1083.3227
       131     895.9745    041    2883.5631    302    3546.3014
       212   -2128.4391    122   -1452.4169    032   -8479.6284
       203    -594.5930    113    -410.9259    023    1591.7054
       104     695.2724    014   -1057.8068    005    -930.0562
 -----------------------------------------------------------------
 -----------------------------------------------------------------
                 RPA Excited-State Multipoles, State    9   
                  LMN = < X^L Y^M Z^N >
 -----------------------------------------------------------------
    Charge (ESU x 10^10)
                 0.0000
    Dipole Moment (Debye)
         X      -7.4562      Y      -5.9690      Z       1.1673
       Tot       9.6222
    Quadrupole Moments (Debye-Ang)
        XX     -79.6483     XY      -0.4240     YY    -128.5833
        XZ      -0.7314     YZ      -9.8335     ZZ    -127.2108
    Octopole Moments (Debye-Ang^2)
       XXX      36.8708    XXY    -407.2767    XYY      10.0969
       YYY    -950.8284    XXZ       2.0812    XYZ      24.4497
       YYZ     -59.3108    XZZ     118.9114    YZZ    -329.1748
       ZZZ    -114.5140
    Hexadecapole Moments (Debye-Ang^3)
      XXXX   -4065.2981   XXXY    -159.0235   XXYY   -2721.5761
      XYYY   -1337.1008   YYYY   -9137.9717   XXXZ     -11.9730
      XXYZ      74.7276   XYYZ     113.5871   YYYZ      76.3411
      XXZZ   -1210.0305   XYZZ    -230.2639   YYZZ   -1642.2656
      XZZZ     129.4142   YZZZ     255.0583   ZZZZ    -672.1158
    5th-Order Moments (Debye-Ang^4)
       500   17155.0992    410  -12676.4178    320    -653.7294
       230  -14767.6102    140  -13333.5936    050  -80182.9856
       401    -162.2099    311     -36.9097    221     805.6763
       131     357.9937    041    2112.7027    302    3675.2210
       212   -2102.5788    122   -1391.0945    032   -8526.9617
       203    -616.0717    113    -425.3204    023    1603.1215
       104     702.5967    014   -1071.8211    005    -923.6044
 -----------------------------------------------------------------
 -----------------------------------------------------------------
                 RPA Excited-State Multipoles, State   10   
                  LMN = < X^L Y^M Z^N >
 -----------------------------------------------------------------
    Charge (ESU x 10^10)
                 0.0000
    Dipole Moment (Debye)
         X     -16.9824      Y     -12.5378      Z       1.7699
       Tot      21.1832
    Quadrupole Moments (Debye-Ang)
        XX     -94.0918     XY     -50.5161     YY    -186.8834
        XZ       1.8858     YZ      -5.7740     ZZ    -125.4854
    Octopole Moments (Debye-Ang^2)
       XXX    -123.4717    XXY    -583.9715    XYY    -317.4275
       YYY   -1382.5353    XXZ      18.1901    XYZ      44.4180
       YYZ     -33.1896    XZZ     118.5565    YZZ    -322.4698
       ZZZ    -114.7761
    Hexadecapole Moments (Debye-Ang^3)
      XXXX   -4261.1641   XXXY    -879.1921   XXYY   -3870.0049
      XYYY   -3394.7528   YYYY  -12061.8953   XXXZ      -6.7422
      XXYZ     129.1663   XYYZ     217.9389   YYYZ     229.1073
      XXZZ   -1194.7297   XYZZ    -226.8356   YYZZ   -1615.6693
      XZZZ     132.9341   YZZZ     256.5978   ZZZZ    -669.1685
    5th-Order Moments (Debye-Ang^4)
       500   14539.5401    410  -15247.7049    320   -5137.7441
       230  -22127.1393    140  -26284.3733    050  -99364.6016
       401      71.3590    311     161.9738    221    1156.8300
       131     997.3622    041    3060.3753    302    3623.8500
       212   -2106.6333    122   -1412.2444    032   -8441.8583
       203    -590.6328    113    -400.9172    023    1612.6218
       104     707.8631    014   -1050.7645    005    -929.8899
 -----------------------------------------------------------------
 -----------------------------------------------------------------
                 RPA Excited-State Multipoles, State   11   
                  LMN = < X^L Y^M Z^N >
 -----------------------------------------------------------------
    Charge (ESU x 10^10)
                -0.0000
    Dipole Moment (Debye)
         X     -19.7708      Y     -18.0300      Z       3.4839
       Tot      26.9834
    Quadrupole Moments (Debye-Ang)
        XX     -94.7778     XY     -52.9030     YY    -211.1303
        XZ      -1.2312     YZ      -4.7171     ZZ    -124.0089
    Octopole Moments (Debye-Ang^2)
       XXX    -150.1977    XXY    -590.7925    XYY    -314.8561
       YYY   -1498.2375    XXZ      15.8122    XYZ      39.4295
       YYZ     -25.6724    XZZ     113.9119    YZZ    -327.6434
       ZZZ    -109.3762
    Hexadecapole Moments (Debye-Ang^3)
      XXXX   -4199.0793   XXXY    -890.1328   XXYY   -3836.6279
      XYYY   -3304.2159   YYYY  -12631.4242   XXXZ     -22.6967
      XXYZ     104.8579   XYYZ     196.6116   YYYZ     280.3125
      XXZZ   -1194.2397   XYZZ    -231.8372   YYZZ   -1640.8278
      XZZZ     123.0939   YZZZ     258.4448   ZZZZ    -661.0551
    5th-Order Moments (Debye-Ang^4)
       500   13903.3164    410  -15106.0956    320   -4935.4007
       230  -21686.1608    140  -25499.1785    050 -102409.8874
       401     -28.3569    311     112.8047    221    1070.9149
       131     929.4400    041    3442.9085    302    3597.8127
       212   -2125.6120    122   -1429.2238    032   -8574.9322
       203    -588.3976    113    -415.3077    023    1625.1332
       104     692.7204    014   -1063.4202    005    -901.9896
 -----------------------------------------------------------------
 -----------------------------------------------------------------
                 RPA Excited-State Multipoles, State   12   
                  LMN = < X^L Y^M Z^N >
 -----------------------------------------------------------------
    Charge (ESU x 10^10)
                 0.0000
    Dipole Moment (Debye)
         X     -11.4938      Y     -12.0547      Z       2.7857
       Tot      16.8874
    Quadrupole Moments (Debye-Ang)
        XX    -109.5815     XY     -35.8130     YY    -180.3655
        XZ       0.9835     YZ      -4.7701     ZZ    -124.7755
    Octopole Moments (Debye-Ang^2)
       XXX     -25.1587    XXY    -562.0736    XYY    -231.7281
       YYY   -1324.6276    XXZ       6.0841    XYZ      38.0689
       YYZ     -30.2622    XZZ     121.0868    YZZ    -323.2466
       ZZZ    -111.7647
    Hexadecapole Moments (Debye-Ang^3)
      XXXX   -4577.5704   XXXY    -717.8550   XXYY   -3666.1019
      XYYY   -2897.2303   YYYY  -11652.2802   XXXZ      20.0489
      XXYZ     106.4882   XYYZ     193.4614   YYYZ     246.7828
      XXZZ   -1212.8124   XYZZ    -223.1535   YYZZ   -1619.9503
      XZZZ     130.2876   YZZZ     258.7250   ZZZZ    -665.1859
    5th-Order Moments (Debye-Ang^4)
       500   16369.0298    410  -14888.3150    320   -4099.2691
       230  -20575.9191    140  -23245.5185    050  -96669.1441
       401    -232.3197    311      92.7806    221    1041.5066
       131     880.6251    041    3193.1505    302    3714.8280
       212   -2103.4962    122   -1380.3632    032   -8455.8083
       203    -616.2821    113    -416.8060    023    1617.7043
       104     712.3594    014   -1053.5241    005    -915.3787
 -----------------------------------------------------------------
 -----------------------------------------------------------------
                 RPA Excited-State Multipoles, State   13   
                  LMN = < X^L Y^M Z^N >
 -----------------------------------------------------------------
    Charge (ESU x 10^10)
                 0.0000
    Dipole Moment (Debye)
         X     -20.2581      Y     -16.4411      Z       2.6580
       Tot      26.2252
    Quadrupole Moments (Debye-Ang)
        XX     -83.3786     XY     -50.2427     YY    -206.5765
        XZ      -0.6649     YZ      -3.7690     ZZ    -125.6709
    Octopole Moments (Debye-Ang^2)
       XXX    -183.1495    XXY    -577.0404    XYY    -299.1810
       YYY   -1477.4546    XXZ      20.3512    XYZ      39.0703
       YYZ     -23.9912    XZZ     115.4549    YZZ    -326.7583
       ZZZ    -113.0421
    Hexadecapole Moments (Debye-Ang^3)
      XXXX   -3928.9127   XXXY    -832.8366   XXYY   -3781.6022
      XYYY   -3235.9328   YYYY  -12536.2163   XXXZ     -45.4860
      XXYZ     117.7217   XYYZ     202.8504   YYYZ     285.8043
      XXZZ   -1190.4104   XYZZ    -232.0824   YYZZ   -1639.4048
      XZZZ     127.9691   YZZZ     260.3266   ZZZZ    -670.1283
    5th-Order Moments (Debye-Ang^4)
       500   12748.2692    410  -15081.8676    320   -4740.1885
       230  -21435.5443    140  -25170.2374    050 -101905.3529
       401     157.6612    311     100.1176    221    1091.0088
       131     946.4065    041    3436.3205    302    3572.4229
       212   -2113.2272    122   -1424.3296    032   -8569.2155
       203    -587.5705    113    -413.0421    023    1630.6628
       104     701.4445    014   -1063.2746    005    -924.3912
 -----------------------------------------------------------------
 -----------------------------------------------------------------
                 RPA Excited-State Multipoles, State   14   
                  LMN = < X^L Y^M Z^N >
 -----------------------------------------------------------------
    Charge (ESU x 10^10)
                -0.0000
    Dipole Moment (Debye)
         X     -16.6401      Y     -16.3756      Z       3.3619
       Tot      23.5872
    Quadrupole Moments (Debye-Ang)
        XX    -105.8251     XY     -47.8286     YY    -203.9428
        XZ      -0.4999     YZ      -4.9618     ZZ    -125.0289
    Octopole Moments (Debye-Ang^2)
       XXX     -93.9746    XXY    -576.1282    XYY    -267.5386
       YYY   -1436.7580    XXZ       3.7520    XYZ      32.3107
       YYZ     -34.5822    XZZ     117.0853    YZZ    -329.2749
       ZZZ    -110.1410
    Hexadecapole Moments (Debye-Ang^3)
      XXXX   -4418.8468   XXXY    -836.1889   XXYY   -3750.4101
      XYYY   -3027.0669   YYYY  -12195.8905   XXXZ       3.4782
      XXYZ      93.9886   XYYZ     174.3701   YYYZ     224.1204
      XXZZ   -1218.6918   XYZZ    -236.7686   YYZZ   -1652.4977
      XZZZ     125.6183   YZZZ     256.6756   ZZZZ    -666.9305
    5th-Order Moments (Debye-Ang^4)
       500   14833.8161    410  -14989.4658    320   -4411.0372
       230  -20926.6276    140  -23735.0565    050  -99370.9656
       401    -243.7185    311      27.2752    221     960.2733
       131     785.2190    041    3060.9673    302    3655.7679
       212   -2145.6381    122   -1432.5239    032   -8612.8081
       203    -623.0091    113    -433.0253    023    1598.8323
       104     700.4508    014   -1079.8656    005    -908.1684
 -----------------------------------------------------------------
 Total job time:  4589.34s(wall), 63234.13s(cpu) 
 Fri Jan 31 01:05:06 2025

        *************************************************************
        *                                                           *
        *  Thank you very much for using Q-Chem.  Have a nice day.  *
        *                                                           *
        *************************************************************


