
Running Job 1 of 1 Petunidin_Q1_tddft_full.in
qchem Petunidin_Q1_tddft_full.in_3738569.0 /data/brussel/103/vsc10365/activedata/TDDFTAnthocyanidines/qchem3738569/ 1
/apps/brussel/RL8/skylake/software/Q-Chem/6.2.0/exe/qcprog.exe_s Petunidin_Q1_tddft_full.in_3738569.0 /data/brussel/103/vsc10365/activedata/TDDFTAnthocyanidines/qchem3738569/
                  Welcome to Q-Chem
     A Quantum Leap Into The Future Of Chemistry


 Q-Chem 6.2, Q-Chem, Inc., Pleasanton, CA (2024)

 License issued to: SRG Prof. Dr. Frank De Proft, Vrije Universiteit Brussel

 E. Epifanovsky,  A. T. B. Gilbert,  Xintian Feng,  Joonho Lee,  Yuezhi Mao,  
 N. Mardirossian,  P. Pokhilko,  A. White,  M. Wormit,  M. P. Coons,  
 A. L. Dempwolff,  Zhengting Gan,  D. Hait,  P. R. Horn,  L. D. Jacobson,  
 I. Kaliman,  J. Kussmann,  A. W. Lange,  Ka Un Lao,  D. S. Levine,  Jie Liu,  
 S. C. McKenzie,  A. F. Morrison,  K. D. Nanda,  F. Plasser,  D. R. Rehn,  
 M. L. Vidal,  Zhi-Qiang You,  Ying Zhu,  Huseyin Aksu,  B. Alam,  
 B. Albrecht,  A. Aldossary,  E. Alguire,  J. H. Andersen,  
 J. E. Arias-Martinez,  V. Athavale,  D. Barton,  K. Begam,  A. Behn,  
 N. Bellonzi,  Y. A. Bernard,  E. J. Berquist,  H. Burton,  A. Carreras,  
 K. Carter-Fenk,  Mathew Chow,  Romit Chakraborty,  Chandrima Chakravarty,  
 Junhan Chen,  A. D. Chien,  K. D. Closser,  V. Cofer-Shabica,  L. Cunha,  
 S. Dasgupta,  Jia Deng,  Joseph Dickinson,  M. de Wergifosse,  
 M. Diedenhofen,  Hainam Do,  Wenjie Dou,  S. Ehlert,  Po-Tung Fang,  
 S. Fatehi,  Qingguo Feng,  Jonathan Fetherolf,  T. Friedhoff,  
 Thomas Froitzheim,  Sarai Folkestad,  B. Ganoe,  J. Gayvert,  Qinghui Ge,  
 G. Gidofalvi,  M. Gimferrer,  M. Goldey,  Montgomery Gray,  J. Gomes,  
 C. Gonzalez-Espinoza,  S. Gulania,  A. Gunina,  J. A. Gyamfi,  
 M. W. D. Hanson-Heine,  P. H. P. Harbach,  A. W. Hauser,  M. F. Herbst,  
 M. Hernandez Vera,  M. Hodecker,  Z. C. Holden,  S. Houck,  Xunkun Huang,  
 Kerwin Hui,  B. C. Huynh,  K. Ikeda,  M. Ivanov,  Nayanthara K. Jayadev,  
 Hyunjun Ji,  Zuxin Jin,  Hanjie Jiang,  Subrata Jana,  B. Kaduk,  
 S. Kaehler,  R. Kang,  K. Khistyaev,  Jaehoon Kim,  Yongbin Kim,  
 P. Klunzinger,  Z. Koczor-Benda,  Joong Hoon Koh,  D. Kosenkov,  
 Saikiran Kotaru,  L. Koulias,  T. Kowalczyk,  C. M. Krauter,  K. Kue,  
 A. Kunitsa,  T. Kus,  A. Landau,  K. V. Lawler,  D. Lefrancois,  S. Lehtola,  
 Rain Li,  Shaozhi Li,  Tao E. Li,  Yi-Pei Li,  Jiashu Liang,  M. Liebenthal,  
 Hung-Hsuan Lin,  You-Sheng Lin,  Fenglai Liu,  Kuan-Yu Liu,  Xiao Liu,  
 M. Loipersberger,  A. Luenser,  C. Malbon,  Aniket Mandal,  Manisha,  
 A. Manjanath,  P. Manohar,  E. Mansoor,  S. F. Manzer,  Shan-Ping Mao,  
 A. V. Marenich,  T. Markovich,  S. Mason,  F. Matz,  S. A. Maurer,  
 Samuel May,  Alexandra McIsaac,  P. F. McLaughlin,  M. F. S. J. Menger,  
 J.-M. Mewes,  S. A. Mewes,  P. Morgante,  Mohammad Mostafanejad,  
 Madhubani Mukherjee,  J. W. Mullinax,  Quyen Nguyen,  Avik Kumar Ojha,  
 K. J. Oosterbaan,  Eno Paenurk,  Xiaoliang Pan,  G. Paran,  V. Parravicini,  
 Alexander C. Paul,  Suranjan K. Paul,  F. Pavosevic,  Zheng Pei,  S. Prager,  
 E. I. Proynov,  E. Ramos,  B. Rana,  A. E. Rask,  A. Rettig,  R. M. Richard,  
 F. Rob,  E. Rossomme,  T. Scheele,  M. Scheurer,  M. Schneider,  
 P. E. Schneider,  Tim K. Schramm,  N. Sergueev,  S. M. Sharada,  
 Hengyuan Shen,  W. Skomorowski,  D. W. Small,  C. J. Stein,  
 Alistair J. Sterling,  Yingli Su,  Yu-Chuan Su,  E. J. Sundstrom,  
 J. Talbot,  Zhen Tao,  J. Thirman,  Hung-Yi Tsai,  T. Tsuchimochi,  
 N. M. Tubman,  C. Utku,  S. P. Veccham,  O. Vydrov,  Rahel Weiss,  
 J. Wenzel,  Jonathan Wong,  J. Witte,  H. Wu,  Yanze Wu,  A. Yamada,  
 Chou-Hsun Yang,  Kun Yao,  S. Yeganeh,  S. R. Yost,  Qi Yu,  A. Zech,  
 F. Zeller,  Chongxiao Zhao,  Igor Ying Zhang,  Xing Zhang,  Yu Zhang,  
 D. Zuev,  A. Aspuru-Guzik,  A. T. Bell,  N. A. Besley,  K. B. Bravaya,  
 B. R. Brooks,  D. Casanova,  Jeng-Da Chai,  Hsing-Ta Chen,  S. Coriani,  
 C. J. Cramer,  A. E. DePrince, III,  R. A. DiStasio Jr.,  A. Dreuw,  
 B. D. Dunietz,  T. R. Furlani,  W. A. Goddard III,  S. Grimme,  
 S. Hammes-Schiffer,  T. Head-Gordon,  W. J. Hehre,  Chao-Ping Hsu,  
 T.-C. Jagau,  Yousung Jung,  A. Klamt,  Jing Kong,  D. S. Lambrecht,  
 Xiangyuan Li,  WanZhen Liang,  N. J. Mayhall,  C. W. McCurdy,  J. B. Neaton,  
 T. Neudecker,  C. Ochsenfeld,  J. A. Parkhill,  R. Peverati,  
 V. A. Rassolov,  Haisheng Ren,  Yihan Shao,  L. V. Slipchenko,  
 R. P. Steele,  J. E. Subotnik,  A. J. W. Thom,  A. Tkatchenko,  
 D. G. Truhlar,  T. Van Voorhis,  Fan Wang,  T. A. Wesolowski,  K. B. Whaley,  
 H. L. Woodcock III,  P. M. Zimmerman,  S. Faraji,  P. M. W. Gill,  
 M. Head-Gordon,  J. M. Herbert,  A. I. Krylov

 Contributors to earlier versions of Q-Chem not listed above: 
 R. D. Adamson,  B. Austin,  R. Baer,  J. Baker,  G. J. O. Beran,  
 K. Brandhorst,  S. T. Brown,  E. F. C. Byrd,  Arup K. Chakraborty,  
 G. K. L. Chan,  Chun-Min Chang,  Yunqing Chen,  C.-L. Cheng,  
 Siu Hung Chien,  D. M. Chipman,  D. L. Crittenden,  H. Dachsel,  
 R. J. Doerksen,  A. D. Dutoi,  R. G. Edgar,  J. Fosso-Tande,  
 L. Fusti-Molnar,  D. Ghosh,  A. Ghysels,  A. Golubeva-Zadorozhnaya,  
 J. Gonthier,  M. S. Gordon,  S. R. Gwaltney,  G. Hawkins,  J. E. Herr,  
 A. Heyden,  S. Hirata,  E. G. Hohenstein,  G. Kedziora,  F. J. Keil,  
 C. Kelley,  Jihan Kim,  R. A. King,  R. Z. Khaliullin,  P. P. Korambath,  
 W. Kurlancheek,  A. Laurent,  A. M. Lee,  M. S. Lee,  S. V. Levchenko,  
 Ching Yeh Lin,  D. Liotard,  E. Livshits,  R. C. Lochan,  I. Lotan,  
 L. A. Martinez-Martinez,  P. E. Maslen,  N. Nair,  D. P. O'Neill,  
 D. Neuhauser,  E. Neuscamman,  C. M. Oana,  R. Olivares-Amaya,  R. Olson,  
 T. M. Perrine,  B. Peters,  P. A. Pieniazek,  A. Prociuk,  Y. M. Rhee,  
 J. Ritchie,  M. A. Rohrdanz,  E. Rosta,  N. J. Russ,  H. F. Schaefer III,  
 M. W. Schmidt,  N. E. Schultz,  S. Sharma,  N. Shenvi,  C. D. Sherrill,  
 A. C. Simmonett,  A. Sodt,  T. Stein,  D. Stuck,  K. S. Thanthiriwatte,  
 V. Vanovschi,  L. Vogt,  Tao Wang,  A. Warshel,  M. A. Watson,  
 C. F. Williams,  Q. Wu,  X. Xu,  Jun Yang,  W. Zhang,  Yan Zhao

   Please cite Q-Chem as follows:
  "Software for the frontiers of quantum chemistry:
   An overview of developments in the Q-Chem 5 package"
   J. Chem. Phys. 155, 084801 (2021)
   https://doi.org/10.1063/5.0055522 (open access)

 Q-Chem 6.2.0 for Intel X86 EM64T Linux

 Parts of Q-Chem use Armadillo 9.900.5 (Nocturnal Misbehaviour).
 http://arma.sourceforge.net/

 Q-Chem begins on Fri Jan 31 00:48:59 2025  

 Host: 
0

     Scratch files written to /data/brussel/103/vsc10365/activedata/TDDFTAnthocyanidines/qchem3738569//
 May224 |scratch|qcdevops|jenkins|workspace|build_RNUM -1
 Processing $rem in /apps/brussel/RL8/skylake/software/Q-Chem/6.2.0/config/preferences:
 Processing $rem in /user/brussel/103/vsc10365/.qchemrc:
 Symmetry turned off for PCM/SM12/SMD calculation

 Checking the input file for inconsistencies... 	...done.

--------------------------------------------------------------
User input:
--------------------------------------------------------------
$comment
TDDFT calculation of petunidin Q1 structure
nprocs=16
mem=64gb
$end

$molecule
0 1
C    0.0000000   -1.7111704   -4.1115608
C    0.0000000   -0.5338659   -4.8715316
C    0.0000000    0.6917723   -4.2360785
C    0.0000000    0.7708066   -2.8243329
C    0.0000000   -0.4379850   -2.1149896
C    0.0000000   -1.6810036   -2.7230866
C    0.0000000    1.9718892   -2.0788018
C    0.0000000    1.9602371   -0.7122166
C    0.0000000    0.7209183   -0.0001370
O    0.0000000   -0.4064477   -0.7554849
C    0.0000000    0.4831462    1.3925949
C    0.0000000   -0.8664705    1.8631737
C    0.0000000   -1.1552568    3.2001050
C    0.0000000   -0.1099424    4.1949597
C    0.0000000    1.2323841    3.6880409
C    0.0000000    1.5310793    2.3586003
O    0.0000000   -2.9361730   -4.7094867
H    0.0000000   -0.5869418   -5.9540102
O    0.0000000    1.8697013   -4.9178796
H    0.0000000   -2.5903040   -2.1395292
H    0.0000000    2.9253750   -2.5916157
O    0.0000000    3.1148803    0.0116699
H    0.0000000   -1.6691977    1.1444336
O    0.0000000   -2.4147700    3.7286497
O    0.0000000   -0.3195652    5.4452072
O    0.0000000    2.2281086    4.6368465
H    0.0000000    2.5638169    2.0565387
H    0.0000000   -2.8385851   -5.6727049
H    0.0000000    1.7009720   -5.8711253
H    0.0000000    3.8742860   -0.5893733
C    0.0000000   -3.5222822    2.8267497
H    0.0000000    1.7665354    5.4960396
H    0.0000000   -4.4135089    3.4496690
H    0.8929409   -3.5157843    2.1975384
H   -0.8929409   -3.5157843    2.1975384
$end

$rem
BASIS  =  def2-ma-TZVP
MEM_STATIC  =  2000
MEM_TOTAL  =  64000
METHOD  =  CAM-B3LYP
SOLVENT_METHOD = pcm
SYMMETRY_IGNORE  =  1
CIS_N_ROOTS = 7
CIS_SINGLETS = true
CIS_TRIPLETS = true
CISTR_PRINT = true
RPA = true
PRINT_ORBITALS = true
SCF_PRINT = 1
SCF_FINAL_PRINT = 2
PRINT_GENERAL_BASIS = true
CISTR_PRINT = true
PRINT_RADII_GYRE = true
MULTIPOLE_ORDER = 5
CIS_AMPL_PRINT = 5
CIS_AMPL_ANAL = true
STATE_ANALYSIS = true
$end

$pcm
Theory   CPCM
Method   SWIG
Solver   Inversion
Radii    Bondi
$end

$solvent
Dielectric         78.39
OpticalDielectric  1.777849
$end


--------------------------------------------------------------
 ----------------------------------------------------------------
             Standard Nuclear Orientation (Angstroms)
    I     Atom           X                Y                Z
 ----------------------------------------------------------------
    1      C       0.0000000000    -1.7111704000    -4.1115608000
    2      C       0.0000000000    -0.5338659000    -4.8715316000
    3      C       0.0000000000     0.6917723000    -4.2360785000
    4      C       0.0000000000     0.7708066000    -2.8243329000
    5      C       0.0000000000    -0.4379850000    -2.1149896000
    6      C       0.0000000000    -1.6810036000    -2.7230866000
    7      C       0.0000000000     1.9718892000    -2.0788018000
    8      C       0.0000000000     1.9602371000    -0.7122166000
    9      C       0.0000000000     0.7209183000    -0.0001370000
   10      O       0.0000000000    -0.4064477000    -0.7554849000
   11      C       0.0000000000     0.4831462000     1.3925949000
   12      C       0.0000000000    -0.8664705000     1.8631737000
   13      C       0.0000000000    -1.1552568000     3.2001050000
   14      C       0.0000000000    -0.1099424000     4.1949597000
   15      C       0.0000000000     1.2323841000     3.6880409000
   16      C       0.0000000000     1.5310793000     2.3586003000
   17      O       0.0000000000    -2.9361730000    -4.7094867000
   18      H       0.0000000000    -0.5869418000    -5.9540102000
   19      O       0.0000000000     1.8697013000    -4.9178796000
   20      H       0.0000000000    -2.5903040000    -2.1395292000
   21      H       0.0000000000     2.9253750000    -2.5916157000
   22      O       0.0000000000     3.1148803000     0.0116699000
   23      H       0.0000000000    -1.6691977000     1.1444336000
   24      O       0.0000000000    -2.4147700000     3.7286497000
   25      O       0.0000000000    -0.3195652000     5.4452072000
   26      O       0.0000000000     2.2281086000     4.6368465000
   27      H       0.0000000000     2.5638169000     2.0565387000
   28      H       0.0000000000    -2.8385851000    -5.6727049000
   29      H       0.0000000000     1.7009720000    -5.8711253000
   30      H       0.0000000000     3.8742860000    -0.5893733000
   31      C       0.0000000000    -3.5222822000     2.8267497000
   32      H       0.0000000000     1.7665354000     5.4960396000
   33      H       0.0000000000    -4.4135089000     3.4496690000
   34      H       0.8929409000    -3.5157843000     2.1975384000
   35      H      -0.8929409000    -3.5157843000     2.1975384000
 ----------------------------------------------------------------
 Nuclear Repulsion Energy =        1846.10747291 hartrees
 There are       82 alpha and       82 beta electrons
 Requested basis set is def2-ma-TZVP
 Basis set in general basis input format:
-----------------------------------------------------------------------
$basis
C    0
S    6    1.000000
   1.35753497E+04    2.22458144E-04 
   2.03523337E+03    1.72327383E-03 
   4.63225624E+02    8.92557153E-03 
   1.31200196E+02    3.57279845E-02 
   4.28530159E+01    1.10762599E-01 
   1.55841858E+01    2.42956276E-01 
S    2    1.000000
   6.20671385E+00    4.14402634E-01 
   2.57648965E+00    2.37449687E-01 
S    1    1.000000
   5.76963394E-01    1.00000000E+00 
S    1    1.000000
   2.29728314E-01    1.00000000E+00 
S    1    1.000000
   9.51644400E-02    1.00000000E+00 
S    1    1.000000
   4.84754014E-02    1.00000000E+00 
P    4    1.000000
   3.46972322E+01    5.33336578E-03 
   7.95826228E+00    3.58641091E-02 
   2.37808269E+00    1.42158733E-01 
   8.14332082E-01    3.42704718E-01 
P    1    1.000000
   2.88875473E-01    4.64458224E-01 
P    1    1.000000
   1.00568237E-01    2.49557899E-01 
D    1    1.000000
   1.09700000E+00    1.00000000E+00 
D    1    1.000000
   3.18000000E-01    1.00000000E+00 
F    1    1.000000
   7.61000000E-01    1.00000000E+00 
****
C    0
S    6    1.000000
   1.35753497E+04    2.22458144E-04 
   2.03523337E+03    1.72327383E-03 
   4.63225624E+02    8.92557153E-03 
   1.31200196E+02    3.57279845E-02 
   4.28530159E+01    1.10762599E-01 
   1.55841858E+01    2.42956276E-01 
S    2    1.000000
   6.20671385E+00    4.14402634E-01 
   2.57648965E+00    2.37449687E-01 
S    1    1.000000
   5.76963394E-01    1.00000000E+00 
S    1    1.000000
   2.29728314E-01    1.00000000E+00 
S    1    1.000000
   9.51644400E-02    1.00000000E+00 
S    1    1.000000
   4.84754014E-02    1.00000000E+00 
P    4    1.000000
   3.46972322E+01    5.33336578E-03 
   7.95826228E+00    3.58641091E-02 
   2.37808269E+00    1.42158733E-01 
   8.14332082E-01    3.42704718E-01 
P    1    1.000000
   2.88875473E-01    4.64458224E-01 
P    1    1.000000
   1.00568237E-01    2.49557899E-01 
D    1    1.000000
   1.09700000E+00    1.00000000E+00 
D    1    1.000000
   3.18000000E-01    1.00000000E+00 
F    1    1.000000
   7.61000000E-01    1.00000000E+00 
****
C    0
S    6    1.000000
   1.35753497E+04    2.22458144E-04 
   2.03523337E+03    1.72327383E-03 
   4.63225624E+02    8.92557153E-03 
   1.31200196E+02    3.57279845E-02 
   4.28530159E+01    1.10762599E-01 
   1.55841858E+01    2.42956276E-01 
S    2    1.000000
   6.20671385E+00    4.14402634E-01 
   2.57648965E+00    2.37449687E-01 
S    1    1.000000
   5.76963394E-01    1.00000000E+00 
S    1    1.000000
   2.29728314E-01    1.00000000E+00 
S    1    1.000000
   9.51644400E-02    1.00000000E+00 
S    1    1.000000
   4.84754014E-02    1.00000000E+00 
P    4    1.000000
   3.46972322E+01    5.33336578E-03 
   7.95826228E+00    3.58641091E-02 
   2.37808269E+00    1.42158733E-01 
   8.14332082E-01    3.42704718E-01 
P    1    1.000000
   2.88875473E-01    4.64458224E-01 
P    1    1.000000
   1.00568237E-01    2.49557899E-01 
D    1    1.000000
   1.09700000E+00    1.00000000E+00 
D    1    1.000000
   3.18000000E-01    1.00000000E+00 
F    1    1.000000
   7.61000000E-01    1.00000000E+00 
****
C    0
S    6    1.000000
   1.35753497E+04    2.22458144E-04 
   2.03523337E+03    1.72327383E-03 
   4.63225624E+02    8.92557153E-03 
   1.31200196E+02    3.57279845E-02 
   4.28530159E+01    1.10762599E-01 
   1.55841858E+01    2.42956276E-01 
S    2    1.000000
   6.20671385E+00    4.14402634E-01 
   2.57648965E+00    2.37449687E-01 
S    1    1.000000
   5.76963394E-01    1.00000000E+00 
S    1    1.000000
   2.29728314E-01    1.00000000E+00 
S    1    1.000000
   9.51644400E-02    1.00000000E+00 
S    1    1.000000
   4.84754014E-02    1.00000000E+00 
P    4    1.000000
   3.46972322E+01    5.33336578E-03 
   7.95826228E+00    3.58641091E-02 
   2.37808269E+00    1.42158733E-01 
   8.14332082E-01    3.42704718E-01 
P    1    1.000000
   2.88875473E-01    4.64458224E-01 
P    1    1.000000
   1.00568237E-01    2.49557899E-01 
D    1    1.000000
   1.09700000E+00    1.00000000E+00 
D    1    1.000000
   3.18000000E-01    1.00000000E+00 
F    1    1.000000
   7.61000000E-01    1.00000000E+00 
****
C    0
S    6    1.000000
   1.35753497E+04    2.22458144E-04 
   2.03523337E+03    1.72327383E-03 
   4.63225624E+02    8.92557153E-03 
   1.31200196E+02    3.57279845E-02 
   4.28530159E+01    1.10762599E-01 
   1.55841858E+01    2.42956276E-01 
S    2    1.000000
   6.20671385E+00    4.14402634E-01 
   2.57648965E+00    2.37449687E-01 
S    1    1.000000
   5.76963394E-01    1.00000000E+00 
S    1    1.000000
   2.29728314E-01    1.00000000E+00 
S    1    1.000000
   9.51644400E-02    1.00000000E+00 
S    1    1.000000
   4.84754014E-02    1.00000000E+00 
P    4    1.000000
   3.46972322E+01    5.33336578E-03 
   7.95826228E+00    3.58641091E-02 
   2.37808269E+00    1.42158733E-01 
   8.14332082E-01    3.42704718E-01 
P    1    1.000000
   2.88875473E-01    4.64458224E-01 
P    1    1.000000
   1.00568237E-01    2.49557899E-01 
D    1    1.000000
   1.09700000E+00    1.00000000E+00 
D    1    1.000000
   3.18000000E-01    1.00000000E+00 
F    1    1.000000
   7.61000000E-01    1.00000000E+00 
****
C    0
S    6    1.000000
   1.35753497E+04    2.22458144E-04 
   2.03523337E+03    1.72327383E-03 
   4.63225624E+02    8.92557153E-03 
   1.31200196E+02    3.57279845E-02 
   4.28530159E+01    1.10762599E-01 
   1.55841858E+01    2.42956276E-01 
S    2    1.000000
   6.20671385E+00    4.14402634E-01 
   2.57648965E+00    2.37449687E-01 
S    1    1.000000
   5.76963394E-01    1.00000000E+00 
S    1    1.000000
   2.29728314E-01    1.00000000E+00 
S    1    1.000000
   9.51644400E-02    1.00000000E+00 
S    1    1.000000
   4.84754014E-02    1.00000000E+00 
P    4    1.000000
   3.46972322E+01    5.33336578E-03 
   7.95826228E+00    3.58641091E-02 
   2.37808269E+00    1.42158733E-01 
   8.14332082E-01    3.42704718E-01 
P    1    1.000000
   2.88875473E-01    4.64458224E-01 
P    1    1.000000
   1.00568237E-01    2.49557899E-01 
D    1    1.000000
   1.09700000E+00    1.00000000E+00 
D    1    1.000000
   3.18000000E-01    1.00000000E+00 
F    1    1.000000
   7.61000000E-01    1.00000000E+00 
****
C    0
S    6    1.000000
   1.35753497E+04    2.22458144E-04 
   2.03523337E+03    1.72327383E-03 
   4.63225624E+02    8.92557153E-03 
   1.31200196E+02    3.57279845E-02 
   4.28530159E+01    1.10762599E-01 
   1.55841858E+01    2.42956276E-01 
S    2    1.000000
   6.20671385E+00    4.14402634E-01 
   2.57648965E+00    2.37449687E-01 
S    1    1.000000
   5.76963394E-01    1.00000000E+00 
S    1    1.000000
   2.29728314E-01    1.00000000E+00 
S    1    1.000000
   9.51644400E-02    1.00000000E+00 
S    1    1.000000
   4.84754014E-02    1.00000000E+00 
P    4    1.000000
   3.46972322E+01    5.33336578E-03 
   7.95826228E+00    3.58641091E-02 
   2.37808269E+00    1.42158733E-01 
   8.14332082E-01    3.42704718E-01 
P    1    1.000000
   2.88875473E-01    4.64458224E-01 
P    1    1.000000
   1.00568237E-01    2.49557899E-01 
D    1    1.000000
   1.09700000E+00    1.00000000E+00 
D    1    1.000000
   3.18000000E-01    1.00000000E+00 
F    1    1.000000
   7.61000000E-01    1.00000000E+00 
****
C    0
S    6    1.000000
   1.35753497E+04    2.22458144E-04 
   2.03523337E+03    1.72327383E-03 
   4.63225624E+02    8.92557153E-03 
   1.31200196E+02    3.57279845E-02 
   4.28530159E+01    1.10762599E-01 
   1.55841858E+01    2.42956276E-01 
S    2    1.000000
   6.20671385E+00    4.14402634E-01 
   2.57648965E+00    2.37449687E-01 
S    1    1.000000
   5.76963394E-01    1.00000000E+00 
S    1    1.000000
   2.29728314E-01    1.00000000E+00 
S    1    1.000000
   9.51644400E-02    1.00000000E+00 
S    1    1.000000
   4.84754014E-02    1.00000000E+00 
P    4    1.000000
   3.46972322E+01    5.33336578E-03 
   7.95826228E+00    3.58641091E-02 
   2.37808269E+00    1.42158733E-01 
   8.14332082E-01    3.42704718E-01 
P    1    1.000000
   2.88875473E-01    4.64458224E-01 
P    1    1.000000
   1.00568237E-01    2.49557899E-01 
D    1    1.000000
   1.09700000E+00    1.00000000E+00 
D    1    1.000000
   3.18000000E-01    1.00000000E+00 
F    1    1.000000
   7.61000000E-01    1.00000000E+00 
****
C    0
S    6    1.000000
   1.35753497E+04    2.22458144E-04 
   2.03523337E+03    1.72327383E-03 
   4.63225624E+02    8.92557153E-03 
   1.31200196E+02    3.57279845E-02 
   4.28530159E+01    1.10762599E-01 
   1.55841858E+01    2.42956276E-01 
S    2    1.000000
   6.20671385E+00    4.14402634E-01 
   2.57648965E+00    2.37449687E-01 
S    1    1.000000
   5.76963394E-01    1.00000000E+00 
S    1    1.000000
   2.29728314E-01    1.00000000E+00 
S    1    1.000000
   9.51644400E-02    1.00000000E+00 
S    1    1.000000
   4.84754014E-02    1.00000000E+00 
P    4    1.000000
   3.46972322E+01    5.33336578E-03 
   7.95826228E+00    3.58641091E-02 
   2.37808269E+00    1.42158733E-01 
   8.14332082E-01    3.42704718E-01 
P    1    1.000000
   2.88875473E-01    4.64458224E-01 
P    1    1.000000
   1.00568237E-01    2.49557899E-01 
D    1    1.000000
   1.09700000E+00    1.00000000E+00 
D    1    1.000000
   3.18000000E-01    1.00000000E+00 
F    1    1.000000
   7.61000000E-01    1.00000000E+00 
****
O    0
S    6    1.000000
   2.70323826E+04    2.17263025E-04 
   4.05238714E+03    1.68386622E-03 
   9.22327227E+02    8.73956163E-03 
   2.61240710E+02    3.52399688E-02 
   8.53546414E+01    1.11535191E-01 
   3.10350352E+01    2.55889540E-01 
S    2    1.000000
   1.22608607E+01    3.97687309E-01 
   4.99870760E+00    2.46278494E-01 
S    1    1.000000
   1.17031082E+00    1.00000000E+00 
S    1    1.000000
   4.64747410E-01    1.00000000E+00 
S    1    1.000000
   1.85045364E-01    1.00000000E+00 
S    1    1.000000
   7.02880263E-02    1.00000000E+00 
P    4    1.000000
   6.32749548E+01    6.06851034E-03 
   1.46270494E+01    4.19125758E-02 
   4.45012235E+00    1.61538411E-01 
   1.52757996E+00    3.57069513E-01 
P    1    1.000000
   5.29351179E-01    4.47942075E-01 
P    1    1.000000
   1.74784213E-01    2.44460697E-01 
P    1    1.000000
   5.11127457E-02    1.00000000E+00 
D    1    1.000000
   2.31400000E+00    1.00000000E+00 
D    1    1.000000
   6.45000000E-01    1.00000000E+00 
F    1    1.000000
   1.42800000E+00    1.00000000E+00 
****
C    0
S    6    1.000000
   1.35753497E+04    2.22458144E-04 
   2.03523337E+03    1.72327383E-03 
   4.63225624E+02    8.92557153E-03 
   1.31200196E+02    3.57279845E-02 
   4.28530159E+01    1.10762599E-01 
   1.55841858E+01    2.42956276E-01 
S    2    1.000000
   6.20671385E+00    4.14402634E-01 
   2.57648965E+00    2.37449687E-01 
S    1    1.000000
   5.76963394E-01    1.00000000E+00 
S    1    1.000000
   2.29728314E-01    1.00000000E+00 
S    1    1.000000
   9.51644400E-02    1.00000000E+00 
S    1    1.000000
   4.84754014E-02    1.00000000E+00 
P    4    1.000000
   3.46972322E+01    5.33336578E-03 
   7.95826228E+00    3.58641091E-02 
   2.37808269E+00    1.42158733E-01 
   8.14332082E-01    3.42704718E-01 
P    1    1.000000
   2.88875473E-01    4.64458224E-01 
P    1    1.000000
   1.00568237E-01    2.49557899E-01 
D    1    1.000000
   1.09700000E+00    1.00000000E+00 
D    1    1.000000
   3.18000000E-01    1.00000000E+00 
F    1    1.000000
   7.61000000E-01    1.00000000E+00 
****
C    0
S    6    1.000000
   1.35753497E+04    2.22458144E-04 
   2.03523337E+03    1.72327383E-03 
   4.63225624E+02    8.92557153E-03 
   1.31200196E+02    3.57279845E-02 
   4.28530159E+01    1.10762599E-01 
   1.55841858E+01    2.42956276E-01 
S    2    1.000000
   6.20671385E+00    4.14402634E-01 
   2.57648965E+00    2.37449687E-01 
S    1    1.000000
   5.76963394E-01    1.00000000E+00 
S    1    1.000000
   2.29728314E-01    1.00000000E+00 
S    1    1.000000
   9.51644400E-02    1.00000000E+00 
S    1    1.000000
   4.84754014E-02    1.00000000E+00 
P    4    1.000000
   3.46972322E+01    5.33336578E-03 
   7.95826228E+00    3.58641091E-02 
   2.37808269E+00    1.42158733E-01 
   8.14332082E-01    3.42704718E-01 
P    1    1.000000
   2.88875473E-01    4.64458224E-01 
P    1    1.000000
   1.00568237E-01    2.49557899E-01 
D    1    1.000000
   1.09700000E+00    1.00000000E+00 
D    1    1.000000
   3.18000000E-01    1.00000000E+00 
F    1    1.000000
   7.61000000E-01    1.00000000E+00 
****
C    0
S    6    1.000000
   1.35753497E+04    2.22458144E-04 
   2.03523337E+03    1.72327383E-03 
   4.63225624E+02    8.92557153E-03 
   1.31200196E+02    3.57279845E-02 
   4.28530159E+01    1.10762599E-01 
   1.55841858E+01    2.42956276E-01 
S    2    1.000000
   6.20671385E+00    4.14402634E-01 
   2.57648965E+00    2.37449687E-01 
S    1    1.000000
   5.76963394E-01    1.00000000E+00 
S    1    1.000000
   2.29728314E-01    1.00000000E+00 
S    1    1.000000
   9.51644400E-02    1.00000000E+00 
S    1    1.000000
   4.84754014E-02    1.00000000E+00 
P    4    1.000000
   3.46972322E+01    5.33336578E-03 
   7.95826228E+00    3.58641091E-02 
   2.37808269E+00    1.42158733E-01 
   8.14332082E-01    3.42704718E-01 
P    1    1.000000
   2.88875473E-01    4.64458224E-01 
P    1    1.000000
   1.00568237E-01    2.49557899E-01 
D    1    1.000000
   1.09700000E+00    1.00000000E+00 
D    1    1.000000
   3.18000000E-01    1.00000000E+00 
F    1    1.000000
   7.61000000E-01    1.00000000E+00 
****
C    0
S    6    1.000000
   1.35753497E+04    2.22458144E-04 
   2.03523337E+03    1.72327383E-03 
   4.63225624E+02    8.92557153E-03 
   1.31200196E+02    3.57279845E-02 
   4.28530159E+01    1.10762599E-01 
   1.55841858E+01    2.42956276E-01 
S    2    1.000000
   6.20671385E+00    4.14402634E-01 
   2.57648965E+00    2.37449687E-01 
S    1    1.000000
   5.76963394E-01    1.00000000E+00 
S    1    1.000000
   2.29728314E-01    1.00000000E+00 
S    1    1.000000
   9.51644400E-02    1.00000000E+00 
S    1    1.000000
   4.84754014E-02    1.00000000E+00 
P    4    1.000000
   3.46972322E+01    5.33336578E-03 
   7.95826228E+00    3.58641091E-02 
   2.37808269E+00    1.42158733E-01 
   8.14332082E-01    3.42704718E-01 
P    1    1.000000
   2.88875473E-01    4.64458224E-01 
P    1    1.000000
   1.00568237E-01    2.49557899E-01 
D    1    1.000000
   1.09700000E+00    1.00000000E+00 
D    1    1.000000
   3.18000000E-01    1.00000000E+00 
F    1    1.000000
   7.61000000E-01    1.00000000E+00 
****
C    0
S    6    1.000000
   1.35753497E+04    2.22458144E-04 
   2.03523337E+03    1.72327383E-03 
   4.63225624E+02    8.92557153E-03 
   1.31200196E+02    3.57279845E-02 
   4.28530159E+01    1.10762599E-01 
   1.55841858E+01    2.42956276E-01 
S    2    1.000000
   6.20671385E+00    4.14402634E-01 
   2.57648965E+00    2.37449687E-01 
S    1    1.000000
   5.76963394E-01    1.00000000E+00 
S    1    1.000000
   2.29728314E-01    1.00000000E+00 
S    1    1.000000
   9.51644400E-02    1.00000000E+00 
S    1    1.000000
   4.84754014E-02    1.00000000E+00 
P    4    1.000000
   3.46972322E+01    5.33336578E-03 
   7.95826228E+00    3.58641091E-02 
   2.37808269E+00    1.42158733E-01 
   8.14332082E-01    3.42704718E-01 
P    1    1.000000
   2.88875473E-01    4.64458224E-01 
P    1    1.000000
   1.00568237E-01    2.49557899E-01 
D    1    1.000000
   1.09700000E+00    1.00000000E+00 
D    1    1.000000
   3.18000000E-01    1.00000000E+00 
F    1    1.000000
   7.61000000E-01    1.00000000E+00 
****
C    0
S    6    1.000000
   1.35753497E+04    2.22458144E-04 
   2.03523337E+03    1.72327383E-03 
   4.63225624E+02    8.92557153E-03 
   1.31200196E+02    3.57279845E-02 
   4.28530159E+01    1.10762599E-01 
   1.55841858E+01    2.42956276E-01 
S    2    1.000000
   6.20671385E+00    4.14402634E-01 
   2.57648965E+00    2.37449687E-01 
S    1    1.000000
   5.76963394E-01    1.00000000E+00 
S    1    1.000000
   2.29728314E-01    1.00000000E+00 
S    1    1.000000
   9.51644400E-02    1.00000000E+00 
S    1    1.000000
   4.84754014E-02    1.00000000E+00 
P    4    1.000000
   3.46972322E+01    5.33336578E-03 
   7.95826228E+00    3.58641091E-02 
   2.37808269E+00    1.42158733E-01 
   8.14332082E-01    3.42704718E-01 
P    1    1.000000
   2.88875473E-01    4.64458224E-01 
P    1    1.000000
   1.00568237E-01    2.49557899E-01 
D    1    1.000000
   1.09700000E+00    1.00000000E+00 
D    1    1.000000
   3.18000000E-01    1.00000000E+00 
F    1    1.000000
   7.61000000E-01    1.00000000E+00 
****
O    0
S    6    1.000000
   2.70323826E+04    2.17263025E-04 
   4.05238714E+03    1.68386622E-03 
   9.22327227E+02    8.73956163E-03 
   2.61240710E+02    3.52399688E-02 
   8.53546414E+01    1.11535191E-01 
   3.10350352E+01    2.55889540E-01 
S    2    1.000000
   1.22608607E+01    3.97687309E-01 
   4.99870760E+00    2.46278494E-01 
S    1    1.000000
   1.17031082E+00    1.00000000E+00 
S    1    1.000000
   4.64747410E-01    1.00000000E+00 
S    1    1.000000
   1.85045364E-01    1.00000000E+00 
S    1    1.000000
   7.02880263E-02    1.00000000E+00 
P    4    1.000000
   6.32749548E+01    6.06851034E-03 
   1.46270494E+01    4.19125758E-02 
   4.45012235E+00    1.61538411E-01 
   1.52757996E+00    3.57069513E-01 
P    1    1.000000
   5.29351179E-01    4.47942075E-01 
P    1    1.000000
   1.74784213E-01    2.44460697E-01 
P    1    1.000000
   5.11127457E-02    1.00000000E+00 
D    1    1.000000
   2.31400000E+00    1.00000000E+00 
D    1    1.000000
   6.45000000E-01    1.00000000E+00 
F    1    1.000000
   1.42800000E+00    1.00000000E+00 
****
H    0
S    3    1.000000
   3.40613410E+01    6.02519780E-03 
   5.12357460E+00    4.50210940E-02 
   1.16466260E+00    2.01897260E-01 
S    1    1.000000
   3.27230410E-01    1.00000000E+00 
S    1    1.000000
   1.03072410E-01    1.00000000E+00 
P    1    1.000000
   8.00000000E-01    1.00000000E+00 
****
O    0
S    6    1.000000
   2.70323826E+04    2.17263025E-04 
   4.05238714E+03    1.68386622E-03 
   9.22327227E+02    8.73956163E-03 
   2.61240710E+02    3.52399688E-02 
   8.53546414E+01    1.11535191E-01 
   3.10350352E+01    2.55889540E-01 
S    2    1.000000
   1.22608607E+01    3.97687309E-01 
   4.99870760E+00    2.46278494E-01 
S    1    1.000000
   1.17031082E+00    1.00000000E+00 
S    1    1.000000
   4.64747410E-01    1.00000000E+00 
S    1    1.000000
   1.85045364E-01    1.00000000E+00 
S    1    1.000000
   7.02880263E-02    1.00000000E+00 
P    4    1.000000
   6.32749548E+01    6.06851034E-03 
   1.46270494E+01    4.19125758E-02 
   4.45012235E+00    1.61538411E-01 
   1.52757996E+00    3.57069513E-01 
P    1    1.000000
   5.29351179E-01    4.47942075E-01 
P    1    1.000000
   1.74784213E-01    2.44460697E-01 
P    1    1.000000
   5.11127457E-02    1.00000000E+00 
D    1    1.000000
   2.31400000E+00    1.00000000E+00 
D    1    1.000000
   6.45000000E-01    1.00000000E+00 
F    1    1.000000
   1.42800000E+00    1.00000000E+00 
****
H    0
S    3    1.000000
   3.40613410E+01    6.02519780E-03 
   5.12357460E+00    4.50210940E-02 
   1.16466260E+00    2.01897260E-01 
S    1    1.000000
   3.27230410E-01    1.00000000E+00 
S    1    1.000000
   1.03072410E-01    1.00000000E+00 
P    1    1.000000
   8.00000000E-01    1.00000000E+00 
****
H    0
S    3    1.000000
   3.40613410E+01    6.02519780E-03 
   5.12357460E+00    4.50210940E-02 
   1.16466260E+00    2.01897260E-01 
S    1    1.000000
   3.27230410E-01    1.00000000E+00 
S    1    1.000000
   1.03072410E-01    1.00000000E+00 
P    1    1.000000
   8.00000000E-01    1.00000000E+00 
****
O    0
S    6    1.000000
   2.70323826E+04    2.17263025E-04 
   4.05238714E+03    1.68386622E-03 
   9.22327227E+02    8.73956163E-03 
   2.61240710E+02    3.52399688E-02 
   8.53546414E+01    1.11535191E-01 
   3.10350352E+01    2.55889540E-01 
S    2    1.000000
   1.22608607E+01    3.97687309E-01 
   4.99870760E+00    2.46278494E-01 
S    1    1.000000
   1.17031082E+00    1.00000000E+00 
S    1    1.000000
   4.64747410E-01    1.00000000E+00 
S    1    1.000000
   1.85045364E-01    1.00000000E+00 
S    1    1.000000
   7.02880263E-02    1.00000000E+00 
P    4    1.000000
   6.32749548E+01    6.06851034E-03 
   1.46270494E+01    4.19125758E-02 
   4.45012235E+00    1.61538411E-01 
   1.52757996E+00    3.57069513E-01 
P    1    1.000000
   5.29351179E-01    4.47942075E-01 
P    1    1.000000
   1.74784213E-01    2.44460697E-01 
P    1    1.000000
   5.11127457E-02    1.00000000E+00 
D    1    1.000000
   2.31400000E+00    1.00000000E+00 
D    1    1.000000
   6.45000000E-01    1.00000000E+00 
F    1    1.000000
   1.42800000E+00    1.00000000E+00 
****
H    0
S    3    1.000000
   3.40613410E+01    6.02519780E-03 
   5.12357460E+00    4.50210940E-02 
   1.16466260E+00    2.01897260E-01 
S    1    1.000000
   3.27230410E-01    1.00000000E+00 
S    1    1.000000
   1.03072410E-01    1.00000000E+00 
P    1    1.000000
   8.00000000E-01    1.00000000E+00 
****
O    0
S    6    1.000000
   2.70323826E+04    2.17263025E-04 
   4.05238714E+03    1.68386622E-03 
   9.22327227E+02    8.73956163E-03 
   2.61240710E+02    3.52399688E-02 
   8.53546414E+01    1.11535191E-01 
   3.10350352E+01    2.55889540E-01 
S    2    1.000000
   1.22608607E+01    3.97687309E-01 
   4.99870760E+00    2.46278494E-01 
S    1    1.000000
   1.17031082E+00    1.00000000E+00 
S    1    1.000000
   4.64747410E-01    1.00000000E+00 
S    1    1.000000
   1.85045364E-01    1.00000000E+00 
S    1    1.000000
   7.02880263E-02    1.00000000E+00 
P    4    1.000000
   6.32749548E+01    6.06851034E-03 
   1.46270494E+01    4.19125758E-02 
   4.45012235E+00    1.61538411E-01 
   1.52757996E+00    3.57069513E-01 
P    1    1.000000
   5.29351179E-01    4.47942075E-01 
P    1    1.000000
   1.74784213E-01    2.44460697E-01 
P    1    1.000000
   5.11127457E-02    1.00000000E+00 
D    1    1.000000
   2.31400000E+00    1.00000000E+00 
D    1    1.000000
   6.45000000E-01    1.00000000E+00 
F    1    1.000000
   1.42800000E+00    1.00000000E+00 
****
O    0
S    6    1.000000
   2.70323826E+04    2.17263025E-04 
   4.05238714E+03    1.68386622E-03 
   9.22327227E+02    8.73956163E-03 
   2.61240710E+02    3.52399688E-02 
   8.53546414E+01    1.11535191E-01 
   3.10350352E+01    2.55889540E-01 
S    2    1.000000
   1.22608607E+01    3.97687309E-01 
   4.99870760E+00    2.46278494E-01 
S    1    1.000000
   1.17031082E+00    1.00000000E+00 
S    1    1.000000
   4.64747410E-01    1.00000000E+00 
S    1    1.000000
   1.85045364E-01    1.00000000E+00 
S    1    1.000000
   7.02880263E-02    1.00000000E+00 
P    4    1.000000
   6.32749548E+01    6.06851034E-03 
   1.46270494E+01    4.19125758E-02 
   4.45012235E+00    1.61538411E-01 
   1.52757996E+00    3.57069513E-01 
P    1    1.000000
   5.29351179E-01    4.47942075E-01 
P    1    1.000000
   1.74784213E-01    2.44460697E-01 
P    1    1.000000
   5.11127457E-02    1.00000000E+00 
D    1    1.000000
   2.31400000E+00    1.00000000E+00 
D    1    1.000000
   6.45000000E-01    1.00000000E+00 
F    1    1.000000
   1.42800000E+00    1.00000000E+00 
****
O    0
S    6    1.000000
   2.70323826E+04    2.17263025E-04 
   4.05238714E+03    1.68386622E-03 
   9.22327227E+02    8.73956163E-03 
   2.61240710E+02    3.52399688E-02 
   8.53546414E+01    1.11535191E-01 
   3.10350352E+01    2.55889540E-01 
S    2    1.000000
   1.22608607E+01    3.97687309E-01 
   4.99870760E+00    2.46278494E-01 
S    1    1.000000
   1.17031082E+00    1.00000000E+00 
S    1    1.000000
   4.64747410E-01    1.00000000E+00 
S    1    1.000000
   1.85045364E-01    1.00000000E+00 
S    1    1.000000
   7.02880263E-02    1.00000000E+00 
P    4    1.000000
   6.32749548E+01    6.06851034E-03 
   1.46270494E+01    4.19125758E-02 
   4.45012235E+00    1.61538411E-01 
   1.52757996E+00    3.57069513E-01 
P    1    1.000000
   5.29351179E-01    4.47942075E-01 
P    1    1.000000
   1.74784213E-01    2.44460697E-01 
P    1    1.000000
   5.11127457E-02    1.00000000E+00 
D    1    1.000000
   2.31400000E+00    1.00000000E+00 
D    1    1.000000
   6.45000000E-01    1.00000000E+00 
F    1    1.000000
   1.42800000E+00    1.00000000E+00 
****
H    0
S    3    1.000000
   3.40613410E+01    6.02519780E-03 
   5.12357460E+00    4.50210940E-02 
   1.16466260E+00    2.01897260E-01 
S    1    1.000000
   3.27230410E-01    1.00000000E+00 
S    1    1.000000
   1.03072410E-01    1.00000000E+00 
P    1    1.000000
   8.00000000E-01    1.00000000E+00 
****
H    0
S    3    1.000000
   3.40613410E+01    6.02519780E-03 
   5.12357460E+00    4.50210940E-02 
   1.16466260E+00    2.01897260E-01 
S    1    1.000000
   3.27230410E-01    1.00000000E+00 
S    1    1.000000
   1.03072410E-01    1.00000000E+00 
P    1    1.000000
   8.00000000E-01    1.00000000E+00 
****
H    0
S    3    1.000000
   3.40613410E+01    6.02519780E-03 
   5.12357460E+00    4.50210940E-02 
   1.16466260E+00    2.01897260E-01 
S    1    1.000000
   3.27230410E-01    1.00000000E+00 
S    1    1.000000
   1.03072410E-01    1.00000000E+00 
P    1    1.000000
   8.00000000E-01    1.00000000E+00 
****
H    0
S    3    1.000000
   3.40613410E+01    6.02519780E-03 
   5.12357460E+00    4.50210940E-02 
   1.16466260E+00    2.01897260E-01 
S    1    1.000000
   3.27230410E-01    1.00000000E+00 
S    1    1.000000
   1.03072410E-01    1.00000000E+00 
P    1    1.000000
   8.00000000E-01    1.00000000E+00 
****
C    0
S    6    1.000000
   1.35753497E+04    2.22458144E-04 
   2.03523337E+03    1.72327383E-03 
   4.63225624E+02    8.92557153E-03 
   1.31200196E+02    3.57279845E-02 
   4.28530159E+01    1.10762599E-01 
   1.55841858E+01    2.42956276E-01 
S    2    1.000000
   6.20671385E+00    4.14402634E-01 
   2.57648965E+00    2.37449687E-01 
S    1    1.000000
   5.76963394E-01    1.00000000E+00 
S    1    1.000000
   2.29728314E-01    1.00000000E+00 
S    1    1.000000
   9.51644400E-02    1.00000000E+00 
S    1    1.000000
   4.84754014E-02    1.00000000E+00 
P    4    1.000000
   3.46972322E+01    5.33336578E-03 
   7.95826228E+00    3.58641091E-02 
   2.37808269E+00    1.42158733E-01 
   8.14332082E-01    3.42704718E-01 
P    1    1.000000
   2.88875473E-01    4.64458224E-01 
P    1    1.000000
   1.00568237E-01    2.49557899E-01 
D    1    1.000000
   1.09700000E+00    1.00000000E+00 
D    1    1.000000
   3.18000000E-01    1.00000000E+00 
F    1    1.000000
   7.61000000E-01    1.00000000E+00 
****
H    0
S    3    1.000000
   3.40613410E+01    6.02519780E-03 
   5.12357460E+00    4.50210940E-02 
   1.16466260E+00    2.01897260E-01 
S    1    1.000000
   3.27230410E-01    1.00000000E+00 
S    1    1.000000
   1.03072410E-01    1.00000000E+00 
P    1    1.000000
   8.00000000E-01    1.00000000E+00 
****
H    0
S    3    1.000000
   3.40613410E+01    6.02519780E-03 
   5.12357460E+00    4.50210940E-02 
   1.16466260E+00    2.01897260E-01 
S    1    1.000000
   3.27230410E-01    1.00000000E+00 
S    1    1.000000
   1.03072410E-01    1.00000000E+00 
P    1    1.000000
   8.00000000E-01    1.00000000E+00 
****
H    0
S    3    1.000000
   3.40613410E+01    6.02519780E-03 
   5.12357460E+00    4.50210940E-02 
   1.16466260E+00    2.01897260E-01 
S    1    1.000000
   3.27230410E-01    1.00000000E+00 
S    1    1.000000
   1.03072410E-01    1.00000000E+00 
P    1    1.000000
   8.00000000E-01    1.00000000E+00 
****
H    0
S    3    1.000000
   3.40613410E+01    6.02519780E-03 
   5.12357460E+00    4.50210940E-02 
   1.16466260E+00    2.01897260E-01 
S    1    1.000000
   3.27230410E-01    1.00000000E+00 
S    1    1.000000
   1.03072410E-01    1.00000000E+00 
P    1    1.000000
   8.00000000E-01    1.00000000E+00 
****
$end
-----------------------------------------------------------------------
 There are 331 shells and 829 basis functions

 Total QAlloc Memory Limit  64000 MB
 Mega-Array Size      1956 MB
 MEM_STATIC part      2000 MB

 User-specified dielectric constants (eps_0 = 78.39, eps_inf = 1.78)
 Using C-PCM dielectric factor f(eps) = (eps-1)/eps = 0.987243
 Static dielectric constant eps = 78.39
 Discretize the solute cavity surface with Lebedev spheres
	Using 110 Lebedev grid points for each H atom
	Using 194 Lebedev grid points for other atoms
	Atomic van der Waals radii (Bondi set) will be scaled by 1.20
 Using smooth SwiG surface discretization
 Remove points where switching function is < 1.0e-08
 Keep 2360 surface tesserae and discard 3422 interior tesserae
 Molecular Surface Area = 326.910 Angst**2

 A cutoff of  1.0D-12 yielded  38346 shell pairs
 There are    225022 function pairs (    284856 Cartesian)
 Smallest overlap matrix eigenvalue = 3.75E-06

 Scale SEOQF with 1.000000e-01/1.000000e-01/1.000000e-02

 Standard Electronic Orientation quadrupole field applied
 Nucleus-field energy     =     0.0000000198 hartrees
 Guess from superposition of atomic densities
 Warning:  Energy on first SCF cycle will be non-variational
 SAD guess density has 164.000000 electrons

 -----------------------------------------------------------------------
  General SCF calculation program by
  Eric Jon Sundstrom, Paul Horn, Yuezhi Mao, Dmitri Zuev, Alec White,
  David Stuck, Shaama M.S., Shane Yost, Joonho Lee, David Small,
  Daniel Levine, Susi Lehtola, Hugh Burton, Evgeny Epifanovsky,
  Bang C. Huynh
 -----------------------------------------------------------------------
 Exchange:     0.1900 Hartree-Fock + 0.3500 B88 + 0.4600 muB88 + LR-HF
 Correlation:  0.1900 VWN5 + 0.8100 LYP
 Using SG-1 standard quadrature grid
 using 16 threads for integral computing
 -------------------------------------------------------
 OpenMP Integral computing Module                
 Release: version 1.0, May 2013, Q-Chem Inc. Pittsburgh 
 -------------------------------------------------------
 C-PCM solvent model [f = (eps-1)/eps], solve by matrix inversion
 DFT Correlation          Energy =  -6.69392124716500
 DFT Exchange             Energy = -102.74620159579338
 HF Exchange              Energy = -42.05073259293616
 One-Electron             Energy = -5215.14267051972547
 SCRF wf-dependent energy Energy =   0.00000000000000
 Total Coulomb            Energy = 2370.30893520239988
 Nuclear repulsion Energy = 1846.10747292603423
 A restricted SCF calculation will be
 performed using DIIS
 SCF converges when DIIS error is below 1.0e-08
 DFT Correlation          Energy =  -6.69392124716500
 DFT Exchange             Energy = -102.74620159579338
 HF Exchange              Energy = -42.05073259293616
 One-Electron             Energy = -5215.14267051972547
 SCRF wf-dependent energy Energy =   0.00000000000000
 Total Coulomb            Energy = 2370.30893520239988
 ---------------------------------------
  Cycle       Energy         DIIS error
 ---------------------------------------
 DFT Correlation          Energy =  -6.78200998835954
 DFT Exchange             Energy = -104.93912245915806
 HF Exchange              Energy = -40.67873746270827
 One-Electron             Energy = -5237.62641684864138
 SCRF wf-dependent energy Energy =  -0.48608898230600
 Total Coulomb            Energy = 2401.28822621304425
 Nuclear repulsion Energy = 1846.10747292603423
    1   -1150.2171178272      2.01e-02  
 DFT Correlation          Energy =  -6.71998847151964
 DFT Exchange             Energy = -103.07597589099733
 HF Exchange              Energy = -40.15697102486058
 One-Electron             Energy = -5224.10463700699438
 SCRF wf-dependent energy Energy =   1.33302090607890
 Total Coulomb            Energy = 2383.64025549765665
 Nuclear repulsion Energy = 1846.10747292603423
    2   -1143.1166766021      2.16e-03  
 DFT Correlation          Energy =  -6.74754977799746
 DFT Exchange             Energy = -103.98203526448795
 HF Exchange              Energy = -40.43071969352295
 One-Electron             Energy = -5227.24618665657181
 SCRF wf-dependent energy Energy =  -0.58298082600595
 Total Coulomb            Energy = 2389.46012089744090
 Nuclear repulsion Energy = 1846.10747292603423
    3   -1142.9768230646      2.73e-03  
 DFT Correlation          Energy =  -6.74986890241535
 DFT Exchange             Energy = -104.01715552524111
 HF Exchange              Energy = -40.43844123916229
 One-Electron             Energy = -5229.55756862873204
 SCRF wf-dependent energy Energy =  -0.00832870475392
 Total Coulomb            Energy = 2391.22596507959588
 Nuclear repulsion Energy = 1846.10747292603423
    4   -1143.4218783951      5.17e-04  
 DFT Correlation          Energy =  -6.74948241898261
 DFT Exchange             Energy = -104.00561785715701
 HF Exchange              Energy = -40.43634430338867
 One-Electron             Energy = -5229.40315386251496
 SCRF wf-dependent energy Energy =  -0.04632216694085
 Total Coulomb            Energy = 2391.09348454124938
 Nuclear repulsion Energy = 1846.10747292603423
    5   -1143.4379249947      1.83e-04  
 DFT Correlation          Energy =  -6.74924070065501
 DFT Exchange             Energy = -104.00387901526943
 HF Exchange              Energy = -40.43683334692942
 One-Electron             Energy = -5229.21216204734355
 SCRF wf-dependent energy Energy =  -0.07819146432280
 Total Coulomb            Energy = 2390.93261307995772
 Nuclear repulsion Energy = 1846.10747292603423
    6   -1143.4399631417      5.63e-05  
 DFT Correlation          Energy =  -6.74922550956472
 DFT Exchange             Energy = -104.00284359854975
 HF Exchange              Energy = -40.43680177444377
 One-Electron             Energy = -5229.22335011293580
 SCRF wf-dependent energy Energy =  -0.07199656333864
 Total Coulomb            Energy = 2390.93649089473774
 Nuclear repulsion Energy = 1846.10747292603423
    7   -1143.4402205685      1.69e-05  
 DFT Correlation          Energy =  -6.74928788913889
 DFT Exchange             Energy = -104.00444122311947
 HF Exchange              Energy = -40.43735454545971
 One-Electron             Energy = -5229.25334454322729
 SCRF wf-dependent energy Energy =  -0.06951933456276
 Total Coulomb            Energy = 2390.96621055933883
 Nuclear repulsion Energy = 1846.10747292603423
    8   -1143.4402537381      6.26e-06  
 DFT Correlation          Energy =  -6.74927729450106
 DFT Exchange             Energy = -104.00423035157360
 HF Exchange              Energy = -40.43739147023540
 One-Electron             Energy = -5229.25105306512978
 SCRF wf-dependent energy Energy =  -0.06863921168883
 Total Coulomb            Energy = 2390.96285024573217
 Nuclear repulsion Energy = 1846.10747292603423
    9   -1143.4402640501      3.19e-06  
 DFT Correlation          Energy =  -6.74927489077287
 DFT Exchange             Energy = -104.00417007873421
 HF Exchange              Energy = -40.43739899430658
 One-Electron             Energy = -5229.24879843749568
 SCRF wf-dependent energy Energy =  -0.06900351035574
 Total Coulomb            Energy = 2390.96090395086776
 Nuclear repulsion Energy = 1846.10747292603423
   10   -1143.4402682214      1.63e-06  
 DFT Correlation          Energy =  -6.74927979501584
 DFT Exchange             Energy = -104.00430980992759
 HF Exchange              Energy = -40.43743678760506
 One-Electron             Energy = -5229.25202371558680
 SCRF wf-dependent energy Energy =  -0.06842460343773
 Total Coulomb            Energy = 2390.96373253520187
 Nuclear repulsion Energy = 1846.10747292603423
   11   -1143.4402690348      6.22e-07  
 DFT Correlation          Energy =  -6.74927957074464
 DFT Exchange             Energy = -104.00428761134189
 HF Exchange              Energy = -40.43742933549283
 One-Electron             Energy = -5229.25193803013008
 SCRF wf-dependent energy Energy =  -0.06838733903760
 Total Coulomb            Energy = 2390.96357967949916
 Nuclear repulsion Energy = 1846.10747292603423
   12   -1143.4402692503      3.41e-07  
 DFT Correlation          Energy =  -6.74927958949162
 DFT Exchange             Energy = -104.00430191819369
 HF Exchange              Energy = -40.43743227629932
 One-Electron             Energy = -5229.25193645464515
 SCRF wf-dependent energy Energy =  -0.06837032831731
 Total Coulomb            Energy = 2390.96357835361232
 Nuclear repulsion Energy = 1846.10747292603423
   13   -1143.4402692812      1.72e-07  
 DFT Correlation          Energy =  -6.74927960382053
 DFT Exchange             Energy = -104.00429947743500
 HF Exchange              Energy = -40.43743124673933
 One-Electron             Energy = -5229.25198833127070
 SCRF wf-dependent energy Energy =  -0.06835214566172
 Total Coulomb            Energy = 2390.96360859152264
 Nuclear repulsion Energy = 1846.10747292603423
   14   -1143.4402692873      4.04e-08  
 DFT Correlation          Energy =  -6.74927963503360
 DFT Exchange             Energy = -104.00430078763534
 HF Exchange              Energy = -40.43743147303657
 One-Electron             Energy = -5229.25201363427368
 SCRF wf-dependent energy Energy =  -0.06834456846536
 Total Coulomb            Energy = 2390.96362788489614
 Nuclear repulsion Energy = 1846.10747292603423
   15   -1143.4402692874      1.86e-08  
   16   -1143.4402692875      4.83e-09  Convergence criterion met
 ---------------------------------------
 DFT Correlation          Energy =  -6.74927963503360
 DFT Exchange             Energy = -104.00430078763534
 HF Exchange              Energy = -40.43743147303657
 One-Electron             Energy = -5229.25201363427368
 SCRF wf-dependent energy Energy =  -0.06834456846536
 Total Coulomb            Energy = 2390.96362788489614
 Final Alpha MO Eigenvalues
            1           2           3           4           5           6
    1 -19.2949549 -19.2478654 -19.2472632 -19.2453129 -19.2321272 -19.2227737
            7           8           9          10          11          12
    1 -19.1684439 -10.3683007 -10.3463836 -10.3416744 -10.3408744 -10.3386398
           13          14          15          16          17          18
    1 -10.3193691 -10.3080795 -10.3006401 -10.2896700 -10.2876967 -10.2792898
           19          20          21          22          23          24
    1 -10.2716218 -10.2596760 -10.2556266 -10.2549907 -10.2531521  -1.2226324
           25          26          27          28          29          30
    1  -1.1638218  -1.1629327  -1.1583296  -1.1507767  -1.1387562  -1.0797199
           31          32          33          34          35          36
    1  -0.9719363  -0.9465457  -0.9185817  -0.8829107  -0.8461707  -0.8357528
           37          38          39          40          41          42
    1  -0.8203728  -0.7871164  -0.7636232  -0.7543204  -0.7192826  -0.6992189
           43          44          45          46          47          48
    1  -0.6898767  -0.6656479  -0.6476171  -0.6356601  -0.6274243  -0.6114720
           49          50          51          52          53          54
    1  -0.5950941  -0.5826697  -0.5731608  -0.5647668  -0.5574654  -0.5521714
           55          56          57          58          59          60
    1  -0.5430304  -0.5313887  -0.5195737  -0.5156284  -0.5138973  -0.5049761
           61          62          63          64          65          66
    1  -0.4992823  -0.4962594  -0.4933962  -0.4848930  -0.4820601  -0.4680712
           67          68          69          70          71          72
    1  -0.4606025  -0.4545953  -0.4427595  -0.4378496  -0.4358156  -0.4237086
           73          74          75          76          77          78
    1  -0.4233987  -0.4057682  -0.3986439  -0.3863075  -0.3616868  -0.3281797
           79          80          81          82          83          84
    1  -0.3185141  -0.2909008  -0.2874552  -0.2360318  -0.0701665   0.0067010
           85          86          87          88          89          90
    1   0.0269507   0.0327496   0.0334994   0.0374636   0.0460499   0.0464163
           91          92          93          94          95          96
    1   0.0546765   0.0603369   0.0624713   0.0641810   0.0739886   0.0765761
           97          98          99         100         101         102
    1   0.0842808   0.0879906   0.0914101   0.0932970   0.1017174   0.1030585
          103         104         105         106         107         108
    1   0.1093886   0.1105582   0.1136246   0.1146334   0.1230215   0.1325119
          109         110         111         112         113         114
    1   0.1344820   0.1404179   0.1441289   0.1471669   0.1523085   0.1523624
          115         116         117         118         119         120
    1   0.1568654   0.1655971   0.1732239   0.1809433   0.1851796   0.1876423
          121         122         123         124         125         126
    1   0.1902117   0.1913650   0.1961301   0.2003241   0.2084808   0.2190818
          127         128         129         130         131         132
    1   0.2226573   0.2250389   0.2279282   0.2291137   0.2356500   0.2414533
          133         134         135         136         137         138
    1   0.2443421   0.2478168   0.2499805   0.2538552   0.2620699   0.2650116
          139         140         141         142         143         144
    1   0.2704999   0.2793160   0.2812340   0.2828270   0.2834403   0.2869328
          145         146         147         148         149         150
    1   0.2917110   0.3022578   0.3042486   0.3077842   0.3112034   0.3126809
          151         152         153         154         155         156
    1   0.3167623   0.3178338   0.3217807   0.3221698   0.3348085   0.3354974
          157         158         159         160         161         162
    1   0.3377225   0.3405558   0.3423064   0.3502655   0.3568646   0.3570114
          163         164         165         166         167         168
    1   0.3634875   0.3684747   0.3700419   0.3728714   0.3812092   0.3856022
          169         170         171         172         173         174
    1   0.3870187   0.3896556   0.3923021   0.4001931   0.4026748   0.4195155
          175         176         177         178         179         180
    1   0.4214216   0.4218303   0.4296156   0.4308928   0.4337661   0.4400160
          181         182         183         184         185         186
    1   0.4459886   0.4530234   0.4544743   0.4613631   0.4618432   0.4647397
          187         188         189         190         191         192
    1   0.4683484   0.4724361   0.4758831   0.4820518   0.4831888   0.4882250
          193         194         195         196         197         198
    1   0.4920932   0.4928372   0.5021924   0.5025529   0.5086039   0.5141540
          199         200         201         202         203         204
    1   0.5205210   0.5224234   0.5331792   0.5332889   0.5377711   0.5467133
          205         206         207         208         209         210
    1   0.5471501   0.5608923   0.5615843   0.5699872   0.5722140   0.5824571
          211         212         213         214         215         216
    1   0.5826297   0.5883253   0.5957736   0.5976539   0.6176521   0.6187108
          217         218         219         220         221         222
    1   0.6200774   0.6235142   0.6342747   0.6348222   0.6358717   0.6408772
          223         224         225         226         227         228
    1   0.6471264   0.6513150   0.6555220   0.6593899   0.6642326   0.6657835
          229         230         231         232         233         234
    1   0.6682700   0.6720278   0.6749601   0.6805725   0.6876881   0.6892376
          235         236         237         238         239         240
    1   0.7007311   0.7118232   0.7172722   0.7215309   0.7232496   0.7284683
          241         242         243         244         245         246
    1   0.7329991   0.7420589   0.7463571   0.7505731   0.7559255   0.7651966
          247         248         249         250         251         252
    1   0.7725806   0.7751098   0.7775651   0.7792838   0.7902759   0.7932064
          253         254         255         256         257         258
    1   0.7975992   0.8018029   0.8033588   0.8038198   0.8122464   0.8204176
          259         260         261         262         263         264
    1   0.8233276   0.8266771   0.8318340   0.8374060   0.8485037   0.8507542
          265         266         267         268         269         270
    1   0.8578050   0.8702490   0.8789340   0.8835563   0.8952099   0.8964377
          271         272         273         274         275         276
    1   0.9063058   0.9083823   0.9120682   0.9203582   0.9311364   0.9347728
          277         278         279         280         281         282
    1   0.9380115   0.9414774   0.9498635   0.9581968   0.9766518   0.9849873
          283         284         285         286         287         288
    1   0.9970694   1.0096055   1.0305108   1.0325713   1.0436835   1.0452531
          289         290         291         292         293         294
    1   1.0484215   1.0515486   1.0756151   1.0764086   1.0854767   1.0897484
          295         296         297         298         299         300
    1   1.1019663   1.1056963   1.1182280   1.1207737   1.1294739   1.1373497
          301         302         303         304         305         306
    1   1.1416391   1.1524779   1.1574204   1.1616296   1.1728866   1.1787643
          307         308         309         310         311         312
    1   1.1815948   1.1981502   1.2013390   1.2056715   1.2124249   1.2167860
          313         314         315         316         317         318
    1   1.2187522   1.2245988   1.2421717   1.2545151   1.2644514   1.2849936
          319         320         321         322         323         324
    1   1.2884653   1.2952334   1.3046143   1.3150847   1.3244691   1.3368267
          325         326         327         328         329         330
    1   1.3371797   1.3507798   1.3661266   1.3844855   1.3869952   1.3959174
          331         332         333         334         335         336
    1   1.3965066   1.4114290   1.4247305   1.4249973   1.4371002   1.4446431
          337         338         339         340         341         342
    1   1.4562573   1.4716695   1.4809638   1.4843327   1.4900625   1.5029780
          343         344         345         346         347         348
    1   1.5039836   1.5087909   1.5290484   1.5323518   1.5406662   1.5419808
          349         350         351         352         353         354
    1   1.5567774   1.5573126   1.5677014   1.5754275   1.5883611   1.5898784
          355         356         357         358         359         360
    1   1.5919541   1.5968384   1.6011248   1.6163311   1.6181027   1.6377754
          361         362         363         364         365         366
    1   1.6389787   1.6556633   1.6624701   1.6707368   1.6802895   1.6913662
          367         368         369         370         371         372
    1   1.6962751   1.7073201   1.7093142   1.7172793   1.7271035   1.7303737
          373         374         375         376         377         378
    1   1.7315695   1.7455779   1.7497859   1.7556139   1.7699732   1.7701922
          379         380         381         382         383         384
    1   1.7731451   1.7814683   1.7833909   1.7878079   1.8046355   1.8231847
          385         386         387         388         389         390
    1   1.8435032   1.8499651   1.8612045   1.8635858   1.8800886   1.8919446
          391         392         393         394         395         396
    1   1.9031634   1.9087270   1.9141527   1.9203250   1.9337713   1.9452453
          397         398         399         400         401         402
    1   1.9461525   1.9663327   1.9753942   1.9869778   1.9878801   1.9922085
          403         404         405         406         407         408
    1   2.0021924   2.0095093   2.0120443   2.0149534   2.0305022   2.0469785
          409         410         411         412         413         414
    1   2.0668501   2.0806731   2.0828682   2.0839056   2.0857484   2.1017793
          415         416         417         418         419         420
    1   2.1039593   2.1185143   2.1229291   2.1366928   2.1433429   2.1592334
          421         422         423         424         425         426
    1   2.1610307   2.1687699   2.1776412   2.1784286   2.1941736   2.1965992
          427         428         429         430         431         432
    1   2.2049109   2.2089812   2.2104507   2.2220192   2.2297212   2.2352499
          433         434         435         436         437         438
    1   2.2427149   2.2455590   2.2635644   2.2788629   2.2854284   2.2926003
          439         440         441         442         443         444
    1   2.2960121   2.3085523   2.3191658   2.3432938   2.3464943   2.3515412
          445         446         447         448         449         450
    1   2.3615503   2.3633236   2.3706104   2.3887473   2.3954310   2.4048717
          451         452         453         454         455         456
    1   2.4233607   2.4267155   2.4436723   2.4613119   2.4621052   2.4736237
          457         458         459         460         461         462
    1   2.4876919   2.4998512   2.5032692   2.5142611   2.5212329   2.5304327
          463         464         465         466         467         468
    1   2.5415512   2.5426127   2.5614504   2.5645524   2.5796462   2.5863781
          469         470         471         472         473         474
    1   2.6000174   2.6045373   2.6124009   2.6221486   2.6375748   2.6404641
          475         476         477         478         479         480
    1   2.6455811   2.6674807   2.6842456   2.6924958   2.6945942   2.6981283
          481         482         483         484         485         486
    1   2.6993182   2.7119352   2.7204766   2.7288044   2.7382828   2.7527110
          487         488         489         490         491         492
    1   2.7558147   2.7663701   2.7665881   2.7810808   2.7865635   2.7937370
          493         494         495         496         497         498
    1   2.7993766   2.8073942   2.8150175   2.8190179   2.8371271   2.8511681
          499         500         501         502         503         504
    1   2.8626968   2.8691186   2.8711595   2.8789056   2.8885862   2.8910867
          505         506         507         508         509         510
    1   2.8937966   2.9049279   2.9094498   2.9138998   2.9174959   2.9230905
          511         512         513         514         515         516
    1   2.9430040   2.9456528   2.9541524   2.9614973   2.9628156   2.9725594
          517         518         519         520         521         522
    1   2.9736199   2.9924103   2.9955532   3.0035155   3.0137368   3.0250396
          523         524         525         526         527         528
    1   3.0278921   3.0296268   3.0340657   3.0400824   3.0456936   3.0490982
          529         530         531         532         533         534
    1   3.0668903   3.0786639   3.0866748   3.0901393   3.0980962   3.1035674
          535         536         537         538         539         540
    1   3.1223299   3.1280737   3.1354544   3.1467593   3.1476069   3.1582581
          541         542         543         544         545         546
    1   3.1589133   3.1633456   3.1800484   3.1845851   3.1920912   3.1982016
          547         548         549         550         551         552
    1   3.2111565   3.2120438   3.2154199   3.2282051   3.2296042   3.2435297
          553         554         555         556         557         558
    1   3.2463982   3.2548297   3.2637489   3.2692657   3.2721281   3.2790537
          559         560         561         562         563         564
    1   3.2820241   3.2896233   3.2915883   3.3034627   3.3100376   3.3162188
          565         566         567         568         569         570
    1   3.3245039   3.3324186   3.3346349   3.3429753   3.3501851   3.3579349
          571         572         573         574         575         576
    1   3.3694891   3.3738678   3.3915287   3.3960764   3.4026748   3.4120180
          577         578         579         580         581         582
    1   3.4144291   3.4243871   3.4305185   3.4320484   3.4405375   3.4451589
          583         584         585         586         587         588
    1   3.4525118   3.4593890   3.4655535   3.4690228   3.4735945   3.4828713
          589         590         591         592         593         594
    1   3.4857461   3.4943457   3.4974011   3.5054205   3.5092204   3.5093127
          595         596         597         598         599         600
    1   3.5165086   3.5377063   3.5392483   3.5403686   3.5485209   3.5670677
          601         602         603         604         605         606
    1   3.5879648   3.5905262   3.5947807   3.6077017   3.6117959   3.6179883
          607         608         609         610         611         612
    1   3.6270830   3.6288414   3.6370098   3.6477554   3.6512659   3.6694176
          613         614         615         616         617         618
    1   3.6739401   3.6864941   3.6955814   3.6984371   3.7022902   3.7197734
          619         620         621         622         623         624
    1   3.7379405   3.7506924   3.7584299   3.7607971   3.7707932   3.7915227
          625         626         627         628         629         630
    1   3.8083707   3.8232580   3.8500605   3.8569713   3.8893064   3.8923442
          631         632         633         634         635         636
    1   3.8936311   3.9302586   3.9369065   3.9474876   3.9555892   3.9656095
          637         638         639         640         641         642
    1   3.9892547   4.0170811   4.0462925   4.0471616   4.0510057   4.0625581
          643         644         645         646         647         648
    1   4.0815919   4.0913166   4.1038263   4.1123063   4.1278542   4.1352568
          649         650         651         652         653         654
    1   4.1467828   4.1670548   4.1803588   4.1919802   4.2220398   4.2306052
          655         656         657         658         659         660
    1   4.2317735   4.2394869   4.2411229   4.2560608   4.2707813   4.2792060
          661         662         663         664         665         666
    1   4.2818830   4.2828930   4.3114283   4.3129139   4.3189127   4.3364551
          667         668         669         670         671         672
    1   4.3466894   4.3833695   4.4057717   4.4171725   4.4381743   4.4424194
          673         674         675         676         677         678
    1   4.4610151   4.4707496   4.4822273   4.5086189   4.5247638   4.5414041
          679         680         681         682         683         684
    1   4.5471616   4.5677174   4.5838256   4.6328790   4.6360985   4.6397476
          685         686         687         688         689         690
    1   4.6601791   4.6633673   4.6719188   4.6788394   4.6848354   4.7031153
          691         692         693         694         695         696
    1   4.7236056   4.7679014   4.8181229   4.8235768   4.8519331   4.8833337
          697         698         699         700         701         702
    1   4.8948546   4.9302767   4.9444167   4.9631635   4.9863581   4.9986844
          703         704         705         706         707         708
    1   5.0213392   5.0306293   5.0711216   5.0998099   5.1198230   5.1405967
          709         710         711         712         713         714
    1   5.1745904   5.1983362   5.2326694   5.2782302   5.2831645   5.2989175
          715         716         717         718         719         720
    1   5.3102990   5.3141681   5.3165273   5.3203451   5.3426575   5.3480179
          721         722         723         724         725         726
    1   5.3719929   5.3828757   5.3921554   5.4140713   5.4345868   5.4765466
          727         728         729         730         731         732
    1   5.4976732   5.5223784   5.5258109   5.5260448   5.5375781   5.5508478
          733         734         735         736         737         738
    1   5.5581821   5.5636077   5.6010138   5.6278464   5.6595502   5.6746682
          739         740         741         742         743         744
    1   5.6915766   5.7395724   5.7864441   5.7957755   5.8106234   5.8184688
          745         746         747         748         749         750
    1   5.8268692   5.8360790   5.8590301   5.8955639   5.9574934   5.9962474
          751         752         753         754         755         756
    1   6.0351105   6.0500633   6.0860918   6.1071216   6.1206086   6.1763003
          757         758         759         760         761         762
    1   6.1781564   6.2394270   6.2576404   6.3119417   6.3954242   6.4213942
          763         764         765         766         767         768
    1   6.4492535   6.4521534   6.4528481   6.4649530   6.4708050   6.4801192
          769         770         771         772         773         774
    1   6.4882762   6.5071955   6.5127693   6.5570541   6.5692507   6.6593582
          775         776         777         778         779         780
    1   6.6936934   6.7048780   6.7441069   6.7703815   6.7737978   6.7786879
          781         782         783         784         785         786
    1   6.7871233   6.8728368   6.8914305   6.8975962   6.9262716   6.9293148
          787         788         789         790         791         792
    1   6.9434364   6.9516435   6.9630669   6.9720061   6.9845879   7.0500312
          793         794         795         796         797         798
    1   7.1014980   7.1219515   7.1315892   7.1604766   7.2204937   7.2432663
          799         800         801         802         803         804
    1   7.2984575   7.3709519   7.4048929   7.4228256   7.4433796   7.5087834
          805         806         807         808         809         810
    1   7.5460850   7.5879669  22.4621034  22.4925399  22.6725086  22.8133918
          811         812         813         814         815         816
    1  22.8409048  22.8913347  22.9460244  23.0075236  23.0572183  23.0686214
          817         818         819         820         821         822
    1  23.0955213  23.1345148  23.2093374  23.3941529  23.6539621  23.6828744
          823         824         825         826         827         828
    1  44.0492300  44.1141921  44.1462064  44.1775397  44.2625464  44.4225175
          829
    1  44.7298106
 SCF time:   CPU 6120.58s  wall 532.00s 
 DFT Correlation          Energy =  -6.74927963503360
 DFT Exchange             Energy = -104.00430078763534
 HF Exchange              Energy = -40.43743147303657
 One-Electron             Energy = -5229.25201363427368
 SCRF wf-dependent energy Energy =  -0.06834456846536
 Total Coulomb            Energy = 2390.96362788489614
 Nuclear repulsion Energy = 1846.10747292603423

************** Final PCM Free Energy Summary **************
 G_electrostatic  =      -0.06465950 hartree =     -40.57444722 kcal/mol
 G_cavitation     =       0.00000000 hartree =       0.00000000 kcal/mol
 G_dispersion     =       0.00000000 hartree =       0.00000000 kcal/mol
 G_repulsion      =       0.00000000 hartree =       0.00000000 kcal/mol
 --------------------------------------------------
 Non-electrostatic Free Energy =       0.00000000 hartree =       0.00000000 kcal/mol
 Total                         =      -0.06465950 hartree =     -40.57444722 kcal/mol
 --------------------------------------------------
 SCF Energy (H0 + V/2)                       =   -1143.44026929 
 Solute Internal Energy (H0)                 =   -1143.37560979 
 Total Free Energy (H0 + V/2 + non-elec)     =   -1143.44026929 hartree
                                             = -717519.60200313 kcal/mol
***********************************************************

 SCF   energy = -1143.44026929
 Total energy = -1143.44026929
 MAX_CIS_SUBSPACE fits in available memory
 Direct TDDFT/TDA calculation will be performed
 Exchange:     0.1900 Hartree-Fock + 0.3500 B88 + 0.4600 muB88 + LR-HF
 Correlation:  0.1900 VWN5 + 0.8100 LYP
 Using SG-1 standard quadrature grid
 Triplet excitation energies requested
 Singlet excitation energies requested
 Adding PCM contribution to the XC response (LR-PCM)
 Optical dielectric constant (eps_inf) =  1.78
 CIS energy converged when residual is below 10e- 6
 ---------------------------------------------------
 Iter    Rts Conv    Rts Left    Ttl Dev     Max Dev
 ---------------------------------------------------
   1         0           7      0.000890    0.000158
   2         0           7      0.000313    0.000062
   3         0           7      0.000117    0.000035
   4         0           7      0.000182    0.000134
   5         2           5      0.000082    0.000061
   6         4           3      0.000057    0.000046
   7         5           2      0.000038    0.000033
   8         6           1      0.000032    0.000029
   9         6           1      0.000023    0.000020
  10         6           1      0.000012    0.000009
  11         6           1      0.000006    0.000003
  12         6           1      0.000004    0.000001
  13         7           0      0.000004    0.000001    Roots Converged
 ---------------------------------------------------
 Triplets done: starting singlet calculation
 ---------------------------------------------------
 Iter    Rts Conv    Rts Left    Ttl Dev     Max Dev
 ---------------------------------------------------
  14         0           7      0.001937    0.000494
  15         0           7      0.000502    0.000104
  16         0           7      0.000263    0.000072
  17         0           7      0.000169    0.000053
  18         0           7      0.000079    0.000028
  19         1           6      0.000039    0.000018
  20         4           3      0.000018    0.000008
  21         4           3      0.000009    0.000004
  22         6           1      0.000004    0.000002
  23         7           0      0.000003    0.000001    Roots Converged
 ---------------------------------------------------
 
 ---------------------------------------------------
         TDDFT/TDA Excitation Energies              
 ---------------------------------------------------

 Excited state   1: excitation energy (eV) =       1.3298
 Total energy for state   1:                 -1143.39140064 au
    Multiplicity: Triplet
    Trans. Mom.:  0.0000 X   0.0000 Y   0.0000 Z
    Strength   :     0.0000000000
    D(   77) --> V(    1) amplitude = -0.0726
    D(   81) --> V(    2) amplitude =  0.0713
    D(   82) --> V(    1) amplitude =  0.9764

 Excited state   2: excitation energy (eV) =       2.6695
 Total energy for state   2:                 -1143.34216740 au
    Multiplicity: Triplet
    Trans. Mom.:  0.0000 X   0.0000 Y   0.0000 Z
    Strength   :     0.0000000000
    D(   76) --> V(    1) amplitude = -0.0806
    D(   77) --> V(    1) amplitude =  0.1794
    D(   79) --> V(    1) amplitude = -0.2126
    D(   79) --> V(    4) amplitude =  0.0709
    D(   80) --> V(    1) amplitude = -0.0883
    D(   81) --> V(    1) amplitude =  0.8221
    D(   81) --> V(    2) amplitude = -0.1277
    D(   82) --> V(    2) amplitude =  0.3709
    D(   82) --> V(    4) amplitude = -0.1030
    D(   82) --> V(   12) amplitude = -0.0973

 Excited state   3: excitation energy (eV) =       2.7236
 Total energy for state   3:                 -1143.34017860 au
    Multiplicity: Singlet
    Trans. Mom.:  0.0000 X  -0.2274 Y   4.8023 Z
    Strength   :     1.5423260867
    D(   80) --> V(    1) amplitude =  0.0843
    D(   81) --> V(    1) amplitude = -0.1318
    D(   82) --> V(    1) amplitude =  0.9637

 Excited state   4: excitation energy (eV) =       2.8226
 Total energy for state   4:                 -1143.33654050 au
    Multiplicity: Triplet
    Trans. Mom.:  0.0000 X   0.0000 Y   0.0000 Z
    Strength   :     0.0000000000
    D(   80) --> V(    1) amplitude =  0.9222
    D(   80) --> V(    2) amplitude =  0.1808
    D(   80) --> V(    4) amplitude = -0.1132
    D(   80) --> V(   12) amplitude = -0.1098
    D(   81) --> V(    1) amplitude =  0.1214
    D(   81) --> V(    2) amplitude =  0.0808
    D(   82) --> V(    9) amplitude = -0.1437

 Excited state   5: excitation energy (eV) =       3.5326
 Total energy for state   5:                 -1143.31044821 au
    Multiplicity: Singlet
    Trans. Mom.: -0.0000 X  -0.1943 Y  -0.3614 Z
    Strength   :     0.0145731905
    D(   80) --> V(    1) amplitude =  0.8967
    D(   80) --> V(    2) amplitude =  0.0940
    D(   81) --> V(    1) amplitude =  0.4031

 Excited state   6: excitation energy (eV) =       3.6053
 Total energy for state   6:                 -1143.30777863 au
    Multiplicity: Triplet
    Trans. Mom.:  0.0000 X   0.0000 Y   0.0000 Z
    Strength   :     0.0000000000
    D(   79) --> V(    1) amplitude = -0.3417
    D(   79) --> V(    2) amplitude =  0.2061
    D(   80) --> V(    1) amplitude =  0.0886
    D(   81) --> V(    1) amplitude = -0.4525
    D(   81) --> V(    2) amplitude = -0.0720
    D(   81) --> V(    4) amplitude = -0.1266
    D(   82) --> V(    2) amplitude =  0.7354
    D(   82) --> V(    9) amplitude = -0.0734
    D(   82) --> V(   12) amplitude = -0.0951

 Excited state   7: excitation energy (eV) =       3.7779
 Total energy for state   7:                 -1143.30143436 au
    Multiplicity: Triplet
    Trans. Mom.:  0.0000 X   0.0000 Y   0.0000 Z
    Strength   :     0.0000000000
    D(   75) --> V(    1) amplitude = -0.0791
    D(   77) --> V(    1) amplitude = -0.1968
    D(   77) --> V(   29) amplitude =  0.0718
    D(   79) --> V(    1) amplitude =  0.7189
    D(   79) --> V(    2) amplitude =  0.0941
    D(   79) --> V(    4) amplitude =  0.1953
    D(   80) --> V(    4) amplitude = -0.0731
    D(   80) --> V(    9) amplitude =  0.1528
    D(   81) --> V(    2) amplitude = -0.3262
    D(   81) --> V(    4) amplitude =  0.2303
    D(   81) --> V(   12) amplitude = -0.1168
    D(   81) --> V(   14) amplitude =  0.0776
    D(   82) --> V(    2) amplitude =  0.3460
    D(   82) --> V(   12) amplitude =  0.0980

 Excited state   8: excitation energy (eV) =       3.7828
 Total energy for state   8:                 -1143.30125469 au
    Multiplicity: Singlet
    Trans. Mom.:  0.0000 X  -0.1567 Y   0.5437 Z
    Strength   :     0.0296757325
    D(   79) --> V(    1) amplitude =  0.1756
    D(   80) --> V(    1) amplitude = -0.3874
    D(   81) --> V(    1) amplitude =  0.8619
    D(   81) --> V(    2) amplitude = -0.0993
    D(   82) --> V(    1) amplitude =  0.1419
    D(   82) --> V(    4) amplitude =  0.0946

 Excited state   9: excitation energy (eV) =       3.8750
 Total energy for state   9:                 -1143.29786733 au
    Multiplicity: Triplet
    Trans. Mom.:  0.0000 X   0.0000 Y   0.0000 Z
    Strength   :     0.0000000000
    D(   78) --> V(    1) amplitude =  0.9091
    D(   78) --> V(    2) amplitude =  0.2586
    D(   78) --> V(    4) amplitude = -0.1506
    D(   78) --> V(    9) amplitude = -0.0866
    D(   78) --> V(   12) amplitude = -0.1947
    D(   78) --> V(   18) amplitude =  0.1144
    D(   78) --> V(   29) amplitude =  0.0763

 Excited state  10: excitation energy (eV) =       4.1583
 Total energy for state  10:                 -1143.28745542 au
    Multiplicity: Singlet
    Trans. Mom.: -0.0045 X  -0.0000 Y  -0.0000 Z
    Strength   :     0.0000020791
    D(   78) --> V(    1) amplitude =  0.9270
    D(   78) --> V(    2) amplitude =  0.2400
    D(   78) --> V(    4) amplitude = -0.1401
    D(   78) --> V(    9) amplitude = -0.0772
    D(   78) --> V(   12) amplitude = -0.1748
    D(   78) --> V(   18) amplitude =  0.0909

 Excited state  11: excitation energy (eV) =       4.2950
 Total energy for state  11:                 -1143.28242917 au
    Multiplicity: Triplet
    Trans. Mom.:  0.0000 X   0.0000 Y   0.0000 Z
    Strength   :     0.0000000000
[...]
      XZZZ       0.0000   YZZZ     525.7200   ZZZZ   -7823.1637
    5th-Order Moments (Debye-Ang^4)
       500      -0.0000    410      21.6560    320      -0.0000
       230     205.7396    140      -0.0000    050    2796.0489
       401      -8.2657    311       0.0000    221     -45.9827
       131       0.0000    041    -248.5782    302       0.0000
       212     380.8143    122       0.0000    032     626.4789
       203     325.1299    113       0.0000    023   -1713.3021
       104       0.0000    014    2736.5072    005  -27634.2635
 -----------------------------------------------------------------
 -----------------------------------------------------------------
                 RPA Excited-State Multipoles, State    4   
                  LMN = < X^L Y^M Z^N >
 -----------------------------------------------------------------
    Charge (ESU x 10^10)
                 0.0000
    Dipole Moment (Debye)
         X      -0.0000      Y      -0.6757      Z     -16.8514
       Tot      16.8650
    Quadrupole Moments (Debye-Ang)
        XX    -135.8754     XY       0.0000     YY    -110.3958
        XZ      -0.0000     YZ      -2.3172     ZZ    -138.5913
    Octopole Moments (Debye-Ang^2)
       XXX      -0.0000    XXY      -1.6471    XYY       0.0000
       YYY      13.7762    XXZ       9.1241    XYZ       0.0000
       YYZ     -11.5492    XZZ      -0.0000    YZZ      15.1442
       ZZZ    -801.8101
    Hexadecapole Moments (Debye-Ang^3)
      XXXX    -150.5792   XXXY       0.0000   XXYY    -487.4749
      XYYY       0.0000   YYYY   -2271.4588   XXXZ      -0.0000
      XXYZ     -13.9767   XYYZ      -0.0000   YYYZ    -308.0318
      XXZZ   -1609.2290   XYZZ       0.0000   YYZZ   -1854.0015
      XZZZ      -0.0000   YZZZ     523.9624   ZZZZ   -8354.5440
    5th-Order Moments (Debye-Ang^4)
       500      -0.0000    410      21.5819    320       0.0000
       230     204.6424    140      -0.0000    050    2736.8241
       401      -3.3581    311      -0.0000    221     -34.9840
       131       0.0000    041    -116.9702    302      -0.0000
       212     386.5349    122       0.0000    032     662.5887
       203     328.2150    113      -0.0000    023   -1378.0586
       104      -0.0000    014    3068.0536    005  -29198.6412
 -----------------------------------------------------------------
 -----------------------------------------------------------------
                 RPA Excited-State Multipoles, State    5   
                  LMN = < X^L Y^M Z^N >
 -----------------------------------------------------------------
    Charge (ESU x 10^10)
                 0.0000
    Dipole Moment (Debye)
         X      -0.0000      Y      -0.6033      Z     -14.3942
       Tot      14.4068
    Quadrupole Moments (Debye-Ang)
        XX    -136.0552     XY      -0.0000     YY    -109.7937
        XZ      -0.0000     YZ       1.7392     ZZ    -136.2271
    Octopole Moments (Debye-Ang^2)
       XXX      -0.0000    XXY      -1.7871    XYY      -0.0000
       YYY      13.4005    XXZ      10.1183    XYZ      -0.0000
       YYZ      -1.3100    XZZ      -0.0000    YZZ      25.6920
       ZZZ    -779.7776
    Hexadecapole Moments (Debye-Ang^3)
      XXXX    -151.3365   XXXY       0.0000   XXYY    -487.8088
      XYYY      -0.0000   YYYY   -2270.8382   XXXZ      -0.0000
      XXYZ     -11.6241   XYYZ      -0.0000   YYYZ    -290.7570
      XXZZ   -1609.9477   XYZZ      -0.0000   YYZZ   -1834.9215
      XZZZ      -0.0000   YZZZ     577.2955   ZZZZ   -8338.7644
    5th-Order Moments (Debye-Ang^4)
       500      -0.0000    410      20.9797    320      -0.0000
       230     203.0355    140      -0.0000    050    2723.6770
       401      -2.6276    311      -0.0000    221     -29.6753
       131      -0.0000    041     -63.1614    302      -0.0000
       212     390.1880    122      -0.0000    032     703.7863
       203     335.3873    113      -0.0000    023   -1243.9652
       104      -0.0000    014    3305.4198    005  -28969.3950
 -----------------------------------------------------------------
 -----------------------------------------------------------------
                 RPA Excited-State Multipoles, State    6   
                  LMN = < X^L Y^M Z^N >
 -----------------------------------------------------------------
    Charge (ESU x 10^10)
                 0.0000
    Dipole Moment (Debye)
         X      -0.0000      Y       1.2309      Z     -23.5622
       Tot      23.5943
    Quadrupole Moments (Debye-Ang)
        XX    -136.1112     XY       0.0000     YY    -112.0765
        XZ      -0.0000     YZ      -4.2370     ZZ    -135.7941
    Octopole Moments (Debye-Ang^2)
       XXX      -0.0000    XXY      -0.4142    XYY       0.0000
       YYY      23.9708    XXZ       5.4806    XYZ       0.0000
       YYZ     -47.0206    XZZ      -0.0000    YZZ       5.6089
       ZZZ    -823.3857
    Hexadecapole Moments (Debye-Ang^3)
      XXXX    -151.4349   XXXY       0.0000   XXYY    -488.8834
      XYYY       0.0000   YYYY   -2268.5446   XXXZ      -0.0000
      XXYZ     -15.2681   XYYZ      -0.0000   YYYZ    -302.0592
      XXZZ   -1610.1000   XYZZ       0.0000   YYZZ   -1900.3239
      XZZZ      -0.0000   YZZZ     481.5374   ZZZZ   -8075.2014
    5th-Order Moments (Debye-Ang^4)
       500      -0.0000    410      24.0243    320       0.0000
       230     212.2016    140      -0.0000    050    2832.2766
       401      -8.0599    311      -0.0000    221     -51.6726
       131       0.0000    041    -317.9551    302      -0.0000
       212     382.5872    122       0.0000    032     626.7014
       203     327.9126    113      -0.0000    023   -1874.7902
       104      -0.0000    014    2686.5814    005  -28242.5755
 -----------------------------------------------------------------
 -----------------------------------------------------------------
                 RPA Excited-State Multipoles, State    7   
                  LMN = < X^L Y^M Z^N >
 -----------------------------------------------------------------
    Charge (ESU x 10^10)
                 0.0000
    Dipole Moment (Debye)
         X       0.0000      Y      -1.5239      Z     -29.1114
       Tot      29.1513
    Quadrupole Moments (Debye-Ang)
        XX    -136.0113     XY       0.0000     YY    -116.8096
        XZ      -0.0000     YZ      -0.7113     ZZ    -125.3699
    Octopole Moments (Debye-Ang^2)
       XXX       0.0000    XXY      -2.3407    XYY       0.0000
       YYY      15.9392    XXZ       1.8926    XYZ      -0.0000
       YYZ     -42.2596    XZZ      -0.0000    YZZ       4.3497
       ZZZ    -944.0153
    Hexadecapole Moments (Debye-Ang^3)
      XXXX    -151.1736   XXXY       0.0000   XXYY    -491.4140
      XYYY       0.0000   YYYY   -2310.3173   XXXZ      -0.0000
      XXYZ     -12.0561   XYYZ      -0.0000   YYYZ    -307.2407
      XXZZ   -1599.9286   XYZZ       0.0000   YYZZ   -1933.0528
      XZZZ      -0.0000   YZZZ     471.5585   ZZZZ   -7754.2664
    5th-Order Moments (Debye-Ang^4)
       500       0.0000    410      20.1206    320       0.0000
       230     204.5260    140       0.0000    050    2779.5710
       401     -14.2304    311      -0.0000    221     -49.4170
       131      -0.0000    041    -256.9449    302       0.0000
       212     376.2283    122       0.0000    032     706.5455
       203     245.0024    113      -0.0000    023   -1805.9631
       104      -0.0000    014    2853.3780    005  -31441.8703
 -----------------------------------------------------------------
 -----------------------------------------------------------------
                 RPA Excited-State Multipoles, State    8   
                  LMN = < X^L Y^M Z^N >
 -----------------------------------------------------------------
    Charge (ESU x 10^10)
                 0.0000
    Dipole Moment (Debye)
         X      -0.0000      Y      -2.8781      Z     -31.6344
       Tot      31.7650
    Quadrupole Moments (Debye-Ang)
        XX    -136.3135     XY      -0.0000     YY    -111.8663
        XZ      -0.0000     YZ       0.4569     ZZ    -124.6955
    Octopole Moments (Debye-Ang^2)
       XXX       0.0000    XXY      -3.5249    XYY       0.0000
       YYY       7.4551    XXZ       1.1991    XYZ      -0.0000
       YYZ     -54.7067    XZZ      -0.0000    YZZ      -8.1048
       ZZZ    -985.9120
    Hexadecapole Moments (Debye-Ang^3)
      XXXX    -152.1892   XXXY       0.0000   XXYY    -489.9097
      XYYY      -0.0000   YYYY   -2272.8147   XXXZ      -0.0000
      XXYZ     -10.5442   XYYZ      -0.0000   YYYZ    -282.3240
      XXZZ   -1604.1705   XYZZ      -0.0000   YYZZ   -1871.6195
      XZZZ      -0.0000   YZZZ     458.8480   ZZZZ   -7857.3555
    5th-Order Moments (Debye-Ang^4)
       500       0.0000    410      17.2935    320       0.0000
       230     195.6375    140       0.0000    050    2735.8453
       401     -15.1032    311      -0.0000    221     -54.7884
       131      -0.0000    041    -320.8316    302       0.0000
       212     368.3655    122       0.0000    032     550.1278
       203     235.8717    113      -0.0000    023   -2067.5765
       104      -0.0000    014    2816.8483    005  -32157.1366
 -----------------------------------------------------------------
 -----------------------------------------------------------------
                 RPA Excited-State Multipoles, State    9   
                  LMN = < X^L Y^M Z^N >
 -----------------------------------------------------------------
    Charge (ESU x 10^10)
                 0.0000
    Dipole Moment (Debye)
         X       0.0000      Y      -1.3330      Z      -9.3306
       Tot       9.4254
    Quadrupole Moments (Debye-Ang)
        XX    -137.9739     XY       0.0000     YY    -116.7847
        XZ      -0.0000     YZ      -8.2404     ZZ     -73.1283
    Octopole Moments (Debye-Ang^2)
       XXX       0.0000    XXY      -1.5961    XYY       0.0000
       YYY      14.9935    XXZ       4.0292    XYZ       0.0000
       YYZ     -29.8353    XZZ      -0.0000    YZZ     -16.7891
       ZZZ    -382.6272
    Hexadecapole Moments (Debye-Ang^3)
      XXXX    -154.5443   XXXY       0.0000   XXYY    -492.8445
      XYYY       0.0000   YYYY   -2307.1127   XXXZ      -0.0000
      XXYZ     -15.4266   XYYZ      -0.0000   YYYZ    -313.3922
      XXZZ   -1618.8733   XYZZ       0.0000   YYZZ   -1895.9494
      XZZZ      -0.0000   YZZZ     344.5780   ZZZZ   -5829.1557
    5th-Order Moments (Debye-Ang^4)
       500       0.0000    410      21.9873    320       0.0000
       230     206.0471    140      -0.0000    050    2767.3434
       401     -13.2567    311       0.0000    221     -50.1904
       131       0.0000    041    -240.7862    302      -0.0000
       212     379.6307    122       0.0000    032     623.3284
       203     320.8139    113      -0.0000    023   -1456.6918
       104      -0.0000    014    2095.6062    005  -14530.4611
 -----------------------------------------------------------------
 -----------------------------------------------------------------
                 RPA Excited-State Multipoles, State   10   
                  LMN = < X^L Y^M Z^N >
 -----------------------------------------------------------------
    Charge (ESU x 10^10)
                 0.0000
    Dipole Moment (Debye)
         X      -0.0000      Y       0.8588      Z     -26.5697
       Tot      26.5836
    Quadrupole Moments (Debye-Ang)
        XX    -136.0886     XY       0.0000     YY    -113.8395
        XZ      -0.0000     YZ      -4.6693     ZZ    -130.2318
    Octopole Moments (Debye-Ang^2)
       XXX      -0.0000    XXY      -0.6553    XYY      -0.0000
       YYY      22.0773    XXZ       3.7581    XYZ      -0.0000
       YYZ     -48.6830    XZZ      -0.0000    YZZ       9.4410
       ZZZ    -896.9919
    Hexadecapole Moments (Debye-Ang^3)
      XXXX    -151.5047   XXXY       0.0000   XXYY    -490.0704
      XYYY       0.0000   YYYY   -2289.0669   XXXZ      -0.0000
      XXYZ     -15.4855   XYYZ      -0.0000   YYYZ    -306.9516
      XXZZ   -1605.4724   XYZZ       0.0000   YYZZ   -1912.6961
      XZZZ      -0.0000   YZZZ     457.8126   ZZZZ   -7912.9674
    5th-Order Moments (Debye-Ang^4)
       500      -0.0000    410      23.6564    320      -0.0000
       230     211.4536    140      -0.0000    050    2809.9991
       401     -10.4475    311      -0.0000    221     -51.2414
       131      -0.0000    041    -313.1171    302      -0.0000
       212     384.8547    122       0.0000    032     658.8601
       203     286.4864    113      -0.0000    023   -1914.3480
       104      -0.0000    014    2791.1818    005  -30094.5102
 -----------------------------------------------------------------
 -----------------------------------------------------------------
                 RPA Excited-State Multipoles, State   11   
                  LMN = < X^L Y^M Z^N >
 -----------------------------------------------------------------
    Charge (ESU x 10^10)
                 0.0000
    Dipole Moment (Debye)
         X      -0.0000      Y      -1.4512      Z      -8.4991
       Tot       8.6221
    Quadrupole Moments (Debye-Ang)
        XX    -138.0270     XY       0.0000     YY    -116.9756
        XZ      -0.0000     YZ      -8.0450     ZZ     -71.3919
    Octopole Moments (Debye-Ang^2)
       XXX      -0.0000    XXY      -1.6852    XYY       0.0000
       YYY      14.5956    XXZ       4.2553    XYZ      -0.0000
       YYZ     -28.7488    XZZ      -0.0000    YZZ     -16.9965
       ZZZ    -369.5205
    Hexadecapole Moments (Debye-Ang^3)
      XXXX    -154.7750   XXXY       0.0000   XXYY    -493.0980
      XYYY       0.0000   YYYY   -2307.8287   XXXZ      -0.0000
      XXYZ     -15.2007   XYYZ      -0.0000   YYYZ    -312.1649
      XXZZ   -1619.4761   XYZZ      -0.0000   YYZZ   -1897.4188
      XZZZ      -0.0000   YZZZ     345.0726   ZZZZ   -5795.3334
    5th-Order Moments (Debye-Ang^4)
       500      -0.0000    410      21.8020    320       0.0000
       230     205.5209    140       0.0000    050    2764.1883
       401     -13.5961    311      -0.0000    221     -49.6848
       131      -0.0000    041    -234.0114    302      -0.0000
       212     379.8003    122       0.0000    032     623.5955
       203     319.0451    113      -0.0000    023   -1448.1082
       104      -0.0000    014    2099.2830    005  -14303.6707
 -----------------------------------------------------------------
 -----------------------------------------------------------------
                 RPA Excited-State Multipoles, State   12   
                  LMN = < X^L Y^M Z^N >
 -----------------------------------------------------------------
    Charge (ESU x 10^10)
                 0.0000
    Dipole Moment (Debye)
         X       0.0000      Y       0.8695      Z     -17.6840
       Tot      17.7053
    Quadrupole Moments (Debye-Ang)
        XX    -136.3430     XY      -0.0000     YY    -114.9772
        XZ      -0.0000     YZ      -5.2604     ZZ    -127.7949
    Octopole Moments (Debye-Ang^2)
       XXX       0.0000    XXY      -0.7862    XYY       0.0000
       YYY      19.2259    XXZ       9.0593    XYZ       0.0000
       YYZ     -34.3482    XZZ       0.0000    YZZ      12.7663
       ZZZ    -733.7142
    Hexadecapole Moments (Debye-Ang^3)
      XXXX    -152.2753   XXXY      -0.0000   XXYY    -491.2154
      XYYY      -0.0000   YYYY   -2291.8246   XXXZ      -0.0000
      XXYZ     -15.6380   XYYZ      -0.0000   YYYZ    -308.6150
      XXZZ   -1609.3427   XYZZ      -0.0000   YYZZ   -1906.8293
      XZZZ      -0.0000   YZZZ     452.4788   ZZZZ   -7831.1714
    5th-Order Moments (Debye-Ang^4)
       500       0.0000    410      22.7389    320       0.0000
       230     208.4260    140       0.0000    050    2777.3794
       401      -1.3457    311       0.0000    221     -43.0474
       131       0.0000    041    -250.7657    302       0.0000
       212     385.8806    122       0.0000    032     669.2962
       203     381.7040    113       0.0000    023   -1687.2392
       104       0.0000    014    2835.5751    005  -26267.5315
 -----------------------------------------------------------------
 -----------------------------------------------------------------
                 RPA Excited-State Multipoles, State   13   
                  LMN = < X^L Y^M Z^N >
 -----------------------------------------------------------------
    Charge (ESU x 10^10)
                 0.0000
    Dipole Moment (Debye)
         X       0.0000      Y      -1.4810      Z     -24.9875
       Tot      25.0314
    Quadrupole Moments (Debye-Ang)
        XX    -136.3061     XY       0.0000     YY    -117.1130
        XZ      -0.0000     YZ      -1.1416     ZZ    -119.8623
    Octopole Moments (Debye-Ang^2)
       XXX       0.0000    XXY      -2.3135    XYY       0.0000
       YYY      11.7702    XXZ       3.9916    XYZ      -0.0000
       YYZ     -32.3362    XZZ       0.0000    YZZ       0.5064
       ZZZ    -892.6523
    Hexadecapole Moments (Debye-Ang^3)
      XXXX    -152.4929   XXXY       0.0000   XXYY    -492.6129
      XYYY       0.0000   YYYY   -2307.7387   XXXZ       0.0000
      XXYZ     -12.4351   XYYZ      -0.0000   YYYZ    -305.6815
      XXZZ   -1601.9513   XYZZ      -0.0000   YYZZ   -1912.0616
      XZZZ      -0.0000   YZZZ     504.6639   ZZZZ   -7611.9387
    5th-Order Moments (Debye-Ang^4)
       500       0.0000    410      19.9834    320       0.0000
       230     202.0186    140       0.0000    050    2732.1672
       401     -12.4935    311      -0.0000    221     -44.4062
       131       0.0000    041    -212.3989    302       0.0000
       212     374.8808    122       0.0000    032     664.9659
       203     260.9872    113       0.0000    023   -1685.6897
       104       0.0000    014    2705.7217    005  -30538.0889
 -----------------------------------------------------------------
 -----------------------------------------------------------------
                 RPA Excited-State Multipoles, State   14   
                  LMN = < X^L Y^M Z^N >
 -----------------------------------------------------------------
    Charge (ESU x 10^10)
                 0.0000
    Dipole Moment (Debye)
         X      -0.0000      Y      -0.1813      Z     -28.2304
       Tot      28.2310
    Quadrupole Moments (Debye-Ang)
        XX    -153.2664     XY      -0.0000     YY    -129.3550
        XZ       0.0000     YZ     -10.4426     ZZ    -157.1735
    Octopole Moments (Debye-Ang^2)
       XXX      -0.0000    XXY      -8.1389    XYY      -0.0000
       YYY     -11.1896    XXZ     -38.7754    XYZ      -0.0000
       YYZ     -96.4790    XZZ      -0.0000    YZZ     -29.7788
       ZZZ   -1023.2715
    Hexadecapole Moments (Debye-Ang^3)
      XXXX    -295.0281   XXXY      -0.0000   XXYY    -559.8952
      XYYY      -0.0000   YYYY   -2595.7994   XXXZ       0.0000
      XXYZ     -29.2747   XYYZ       0.0000   YYYZ    -372.9947
      XXZZ   -1833.4548   XYZZ      -0.0000   YYZZ   -2194.3199
      XZZZ       0.0000   YZZZ     287.8042   ZZZZ   -9407.8283
    5th-Order Moments (Debye-Ang^4)
       500      -0.0000    410     -32.2125    320      -0.0000
       230     122.1225    140      -0.0000    050    1953.2208
       401    -345.4175    311      -0.0000    221    -225.8847
       131      -0.0000    041   -1070.5720    302      -0.0000
       212     292.7142    122      -0.0000    032     230.4442
       203    -729.5718    113      -0.0000    023   -3372.2837
       104      -0.0000    014    1232.7055    005  -39220.6474
 -----------------------------------------------------------------
 Total job time:  4794.53s(wall), 65460.33s(cpu) 
 Fri Jan 31 02:08:53 2025

        *************************************************************
        *                                                           *
        *  Thank you very much for using Q-Chem.  Have a nice day.  *
        *                                                           *
        *************************************************************


