
Running Job 1 of 1 Petunidin_H_tddft_full.in
qchem Petunidin_H_tddft_full.in_3957238.0 /data/brussel/103/vsc10365/activedata/TDDFTAnthocyanidines/qchem3957238/ 1
/apps/brussel/RL8/skylake/software/Q-Chem/6.2.0/exe/qcprog.exe_s Petunidin_H_tddft_full.in_3957238.0 /data/brussel/103/vsc10365/activedata/TDDFTAnthocyanidines/qchem3957238/
                  Welcome to Q-Chem
     A Quantum Leap Into The Future Of Chemistry


 Q-Chem 6.2, Q-Chem, Inc., Pleasanton, CA (2024)

 License issued to: SRG Prof. Dr. Frank De Proft, Vrije Universiteit Brussel

 E. Epifanovsky,  A. T. B. Gilbert,  Xintian Feng,  Joonho Lee,  Yuezhi Mao,  
 N. Mardirossian,  P. Pokhilko,  A. White,  M. Wormit,  M. P. Coons,  
 A. L. Dempwolff,  Zhengting Gan,  D. Hait,  P. R. Horn,  L. D. Jacobson,  
 I. Kaliman,  J. Kussmann,  A. W. Lange,  Ka Un Lao,  D. S. Levine,  Jie Liu,  
 S. C. McKenzie,  A. F. Morrison,  K. D. Nanda,  F. Plasser,  D. R. Rehn,  
 M. L. Vidal,  Zhi-Qiang You,  Ying Zhu,  Huseyin Aksu,  B. Alam,  
 B. Albrecht,  A. Aldossary,  E. Alguire,  J. H. Andersen,  
 J. E. Arias-Martinez,  V. Athavale,  D. Barton,  K. Begam,  A. Behn,  
 N. Bellonzi,  Y. A. Bernard,  E. J. Berquist,  H. Burton,  A. Carreras,  
 K. Carter-Fenk,  Mathew Chow,  Romit Chakraborty,  Chandrima Chakravarty,  
 Junhan Chen,  A. D. Chien,  K. D. Closser,  V. Cofer-Shabica,  L. Cunha,  
 S. Dasgupta,  Jia Deng,  Joseph Dickinson,  M. de Wergifosse,  
 M. Diedenhofen,  Hainam Do,  Wenjie Dou,  S. Ehlert,  Po-Tung Fang,  
 S. Fatehi,  Qingguo Feng,  Jonathan Fetherolf,  T. Friedhoff,  
 Thomas Froitzheim,  Sarai Folkestad,  B. Ganoe,  J. Gayvert,  Qinghui Ge,  
 G. Gidofalvi,  M. Gimferrer,  M. Goldey,  Montgomery Gray,  J. Gomes,  
 C. Gonzalez-Espinoza,  S. Gulania,  A. Gunina,  J. A. Gyamfi,  
 M. W. D. Hanson-Heine,  P. H. P. Harbach,  A. W. Hauser,  M. F. Herbst,  
 M. Hernandez Vera,  M. Hodecker,  Z. C. Holden,  S. Houck,  Xunkun Huang,  
 Kerwin Hui,  B. C. Huynh,  K. Ikeda,  M. Ivanov,  Nayanthara K. Jayadev,  
 Hyunjun Ji,  Zuxin Jin,  Hanjie Jiang,  Subrata Jana,  B. Kaduk,  
 S. Kaehler,  R. Kang,  K. Khistyaev,  Jaehoon Kim,  Yongbin Kim,  
 P. Klunzinger,  Z. Koczor-Benda,  Joong Hoon Koh,  D. Kosenkov,  
 Saikiran Kotaru,  L. Koulias,  T. Kowalczyk,  C. M. Krauter,  K. Kue,  
 A. Kunitsa,  T. Kus,  A. Landau,  K. V. Lawler,  D. Lefrancois,  S. Lehtola,  
 Rain Li,  Shaozhi Li,  Tao E. Li,  Yi-Pei Li,  Jiashu Liang,  M. Liebenthal,  
 Hung-Hsuan Lin,  You-Sheng Lin,  Fenglai Liu,  Kuan-Yu Liu,  Xiao Liu,  
 M. Loipersberger,  A. Luenser,  C. Malbon,  Aniket Mandal,  Manisha,  
 A. Manjanath,  P. Manohar,  E. Mansoor,  S. F. Manzer,  Shan-Ping Mao,  
 A. V. Marenich,  T. Markovich,  S. Mason,  F. Matz,  S. A. Maurer,  
 Samuel May,  Alexandra McIsaac,  P. F. McLaughlin,  M. F. S. J. Menger,  
 J.-M. Mewes,  S. A. Mewes,  P. Morgante,  Mohammad Mostafanejad,  
 Madhubani Mukherjee,  J. W. Mullinax,  Quyen Nguyen,  Avik Kumar Ojha,  
 K. J. Oosterbaan,  Eno Paenurk,  Xiaoliang Pan,  G. Paran,  V. Parravicini,  
 Alexander C. Paul,  Suranjan K. Paul,  F. Pavosevic,  Zheng Pei,  S. Prager,  
 E. I. Proynov,  E. Ramos,  B. Rana,  A. E. Rask,  A. Rettig,  R. M. Richard,  
 F. Rob,  E. Rossomme,  T. Scheele,  M. Scheurer,  M. Schneider,  
 P. E. Schneider,  Tim K. Schramm,  N. Sergueev,  S. M. Sharada,  
 Hengyuan Shen,  W. Skomorowski,  D. W. Small,  C. J. Stein,  
 Alistair J. Sterling,  Yingli Su,  Yu-Chuan Su,  E. J. Sundstrom,  
 J. Talbot,  Zhen Tao,  J. Thirman,  Hung-Yi Tsai,  T. Tsuchimochi,  
 N. M. Tubman,  C. Utku,  S. P. Veccham,  O. Vydrov,  Rahel Weiss,  
 J. Wenzel,  Jonathan Wong,  J. Witte,  H. Wu,  Yanze Wu,  A. Yamada,  
 Chou-Hsun Yang,  Kun Yao,  S. Yeganeh,  S. R. Yost,  Qi Yu,  A. Zech,  
 F. Zeller,  Chongxiao Zhao,  Igor Ying Zhang,  Xing Zhang,  Yu Zhang,  
 D. Zuev,  A. Aspuru-Guzik,  A. T. Bell,  N. A. Besley,  K. B. Bravaya,  
 B. R. Brooks,  D. Casanova,  Jeng-Da Chai,  Hsing-Ta Chen,  S. Coriani,  
 C. J. Cramer,  A. E. DePrince, III,  R. A. DiStasio Jr.,  A. Dreuw,  
 B. D. Dunietz,  T. R. Furlani,  W. A. Goddard III,  S. Grimme,  
 S. Hammes-Schiffer,  T. Head-Gordon,  W. J. Hehre,  Chao-Ping Hsu,  
 T.-C. Jagau,  Yousung Jung,  A. Klamt,  Jing Kong,  D. S. Lambrecht,  
 Xiangyuan Li,  WanZhen Liang,  N. J. Mayhall,  C. W. McCurdy,  J. B. Neaton,  
 T. Neudecker,  C. Ochsenfeld,  J. A. Parkhill,  R. Peverati,  
 V. A. Rassolov,  Haisheng Ren,  Yihan Shao,  L. V. Slipchenko,  
 R. P. Steele,  J. E. Subotnik,  A. J. W. Thom,  A. Tkatchenko,  
 D. G. Truhlar,  T. Van Voorhis,  Fan Wang,  T. A. Wesolowski,  K. B. Whaley,  
 H. L. Woodcock III,  P. M. Zimmerman,  S. Faraji,  P. M. W. Gill,  
 M. Head-Gordon,  J. M. Herbert,  A. I. Krylov

 Contributors to earlier versions of Q-Chem not listed above: 
 R. D. Adamson,  B. Austin,  R. Baer,  J. Baker,  G. J. O. Beran,  
 K. Brandhorst,  S. T. Brown,  E. F. C. Byrd,  Arup K. Chakraborty,  
 G. K. L. Chan,  Chun-Min Chang,  Yunqing Chen,  C.-L. Cheng,  
 Siu Hung Chien,  D. M. Chipman,  D. L. Crittenden,  H. Dachsel,  
 R. J. Doerksen,  A. D. Dutoi,  R. G. Edgar,  J. Fosso-Tande,  
 L. Fusti-Molnar,  D. Ghosh,  A. Ghysels,  A. Golubeva-Zadorozhnaya,  
 J. Gonthier,  M. S. Gordon,  S. R. Gwaltney,  G. Hawkins,  J. E. Herr,  
 A. Heyden,  S. Hirata,  E. G. Hohenstein,  G. Kedziora,  F. J. Keil,  
 C. Kelley,  Jihan Kim,  R. A. King,  R. Z. Khaliullin,  P. P. Korambath,  
 W. Kurlancheek,  A. Laurent,  A. M. Lee,  M. S. Lee,  S. V. Levchenko,  
 Ching Yeh Lin,  D. Liotard,  E. Livshits,  R. C. Lochan,  I. Lotan,  
 L. A. Martinez-Martinez,  P. E. Maslen,  N. Nair,  D. P. O'Neill,  
 D. Neuhauser,  E. Neuscamman,  C. M. Oana,  R. Olivares-Amaya,  R. Olson,  
 T. M. Perrine,  B. Peters,  P. A. Pieniazek,  A. Prociuk,  Y. M. Rhee,  
 J. Ritchie,  M. A. Rohrdanz,  E. Rosta,  N. J. Russ,  H. F. Schaefer III,  
 M. W. Schmidt,  N. E. Schultz,  S. Sharma,  N. Shenvi,  C. D. Sherrill,  
 A. C. Simmonett,  A. Sodt,  T. Stein,  D. Stuck,  K. S. Thanthiriwatte,  
 V. Vanovschi,  L. Vogt,  Tao Wang,  A. Warshel,  M. A. Watson,  
 C. F. Williams,  Q. Wu,  X. Xu,  Jun Yang,  W. Zhang,  Yan Zhao

   Please cite Q-Chem as follows:
  "Software for the frontiers of quantum chemistry:
   An overview of developments in the Q-Chem 5 package"
   J. Chem. Phys. 155, 084801 (2021)
   https://doi.org/10.1063/5.0055522 (open access)

 Q-Chem 6.2.0 for Intel X86 EM64T Linux

 Parts of Q-Chem use Armadillo 9.900.5 (Nocturnal Misbehaviour).
 http://arma.sourceforge.net/

 Q-Chem begins on Fri Jan 31 00:48:49 2025  

 Host: 
0

     Scratch files written to /data/brussel/103/vsc10365/activedata/TDDFTAnthocyanidines/qchem3957238//
 May224 |scratch|qcdevops|jenkins|workspace|build_RNUM -1
 Processing $rem in /apps/brussel/RL8/skylake/software/Q-Chem/6.2.0/config/preferences:
 Processing $rem in /user/brussel/103/vsc10365/.qchemrc:
 Symmetry turned off for PCM/SM12/SMD calculation

 Checking the input file for inconsistencies... 	...done.

--------------------------------------------------------------
User input:
--------------------------------------------------------------
$comment
TDDFT calculation of petunidin H structure
nprocs=16
mem=64gb
$end

$molecule
1 1
C   -4.9684955    1.2674089    0.2262491
C   -4.8336688   -0.1033493    0.5173243
C   -3.5907803   -0.6363055    0.7600292
C   -2.4356682    0.1970358    0.7195706
C   -2.6336988    1.5612291    0.4199732
C   -3.8723121    2.1177030    0.1703664
C   -1.1305759   -0.2384120    0.9499554
C   -0.0604254    0.6372428    0.8985060
C   -0.2909215    1.9921531    0.6025550
O   -1.5559136    2.3776558    0.3806797
C    0.6665989    3.0684375    0.4724836
C    0.2673498    4.2503623   -0.1891378
C    1.1524875    5.3015226   -0.3122429
C    2.4448063    5.2061555    0.2322936
C    2.8352875    4.0409850    0.8898679
C    1.9619269    2.9748266    1.0054882
O   -6.1856132    1.8098427   -0.0101939
H   -5.7141588   -0.7338816    0.5509188
O   -3.3848173   -1.9423036    1.0455560
H   -3.9827530    3.1688302   -0.0521602
H   -0.9376660   -1.2821486    1.1650157
O    1.2157693    0.2213123    1.0963122
H   -0.7203509    4.3249754   -0.6124711
O    0.9015733    6.4831065   -0.9393458
O    3.3391550    6.2204671    0.1382888
O    4.0889627    3.9323822    1.4329215
H    2.2927507    2.0959720    1.5322003
H   -6.8807822    1.1387692    0.0628590
H   -4.2243928   -2.4261517    1.0482849
H    1.2320451   -0.7322550    1.2658365
H    2.9365962    6.9652226   -0.3366616
C   -0.3823661    6.6758847   -1.5460775
H    4.5840012    4.7509545    1.2804625
H   -0.3522533    7.6676660   -1.9891209
H   -1.1748685    6.6301467   -0.7971690
H   -0.5575480    5.9298074   -2.3230081
$end

$rem
BASIS  =  def2-ma-TZVP
MEM_STATIC  =  2000
MEM_TOTAL  =  64000
METHOD  =  CAM-B3LYP
SOLVENT_METHOD = pcm
SYMMETRY_IGNORE  =  1
CIS_N_ROOTS = 7
CIS_SINGLETS = true
CIS_TRIPLETS = true
CISTR_PRINT = true
RPA = true
PRINT_ORBITALS = true
SCF_PRINT = 1
SCF_FINAL_PRINT = 2
PRINT_GENERAL_BASIS = true
CISTR_PRINT = true
PRINT_RADII_GYRE = true
MULTIPOLE_ORDER = 5
CIS_AMPL_PRINT = 5
CIS_AMPL_ANAL = true
STATE_ANALYSIS = true
$end

$pcm
Theory   CPCM
Method   SWIG
Solver   Inversion
Radii    Bondi
$end

$solvent
Dielectric         78.39
OpticalDielectric  1.777849
$end


--------------------------------------------------------------
 ----------------------------------------------------------------
             Standard Nuclear Orientation (Angstroms)
    I     Atom           X                Y                Z
 ----------------------------------------------------------------
    1      C      -4.9684955000     1.2674089000     0.2262491000
    2      C      -4.8336688000    -0.1033493000     0.5173243000
    3      C      -3.5907803000    -0.6363055000     0.7600292000
    4      C      -2.4356682000     0.1970358000     0.7195706000
    5      C      -2.6336988000     1.5612291000     0.4199732000
    6      C      -3.8723121000     2.1177030000     0.1703664000
    7      C      -1.1305759000    -0.2384120000     0.9499554000
    8      C      -0.0604254000     0.6372428000     0.8985060000
    9      C      -0.2909215000     1.9921531000     0.6025550000
   10      O      -1.5559136000     2.3776558000     0.3806797000
   11      C       0.6665989000     3.0684375000     0.4724836000
   12      C       0.2673498000     4.2503623000    -0.1891378000
   13      C       1.1524875000     5.3015226000    -0.3122429000
   14      C       2.4448063000     5.2061555000     0.2322936000
   15      C       2.8352875000     4.0409850000     0.8898679000
   16      C       1.9619269000     2.9748266000     1.0054882000
   17      O      -6.1856132000     1.8098427000    -0.0101939000
   18      H      -5.7141588000    -0.7338816000     0.5509188000
   19      O      -3.3848173000    -1.9423036000     1.0455560000
   20      H      -3.9827530000     3.1688302000    -0.0521602000
   21      H      -0.9376660000    -1.2821486000     1.1650157000
   22      O       1.2157693000     0.2213123000     1.0963122000
   23      H      -0.7203509000     4.3249754000    -0.6124711000
   24      O       0.9015733000     6.4831065000    -0.9393458000
   25      O       3.3391550000     6.2204671000     0.1382888000
   26      O       4.0889627000     3.9323822000     1.4329215000
   27      H       2.2927507000     2.0959720000     1.5322003000
   28      H      -6.8807822000     1.1387692000     0.0628590000
   29      H      -4.2243928000    -2.4261517000     1.0482849000
   30      H       1.2320451000    -0.7322550000     1.2658365000
   31      H       2.9365962000     6.9652226000    -0.3366616000
   32      C      -0.3823661000     6.6758847000    -1.5460775000
   33      H       4.5840012000     4.7509545000     1.2804625000
   34      H      -0.3522533000     7.6676660000    -1.9891209000
   35      H      -1.1748685000     6.6301467000    -0.7971690000
   36      H      -0.5575480000     5.9298074000    -2.3230081000
 ----------------------------------------------------------------
 Nuclear Repulsion Energy =        1867.84289796 hartrees
 There are       82 alpha and       82 beta electrons
 Requested basis set is def2-ma-TZVP
 Basis set in general basis input format:
-----------------------------------------------------------------------
$basis
C    0
S    6    1.000000
   1.35753497E+04    2.22458144E-04 
   2.03523337E+03    1.72327383E-03 
   4.63225624E+02    8.92557153E-03 
   1.31200196E+02    3.57279845E-02 
   4.28530159E+01    1.10762599E-01 
   1.55841858E+01    2.42956276E-01 
S    2    1.000000
   6.20671385E+00    4.14402634E-01 
   2.57648965E+00    2.37449687E-01 
S    1    1.000000
   5.76963394E-01    1.00000000E+00 
S    1    1.000000
   2.29728314E-01    1.00000000E+00 
S    1    1.000000
   9.51644400E-02    1.00000000E+00 
S    1    1.000000
   4.84754014E-02    1.00000000E+00 
P    4    1.000000
   3.46972322E+01    5.33336578E-03 
   7.95826228E+00    3.58641091E-02 
   2.37808269E+00    1.42158733E-01 
   8.14332082E-01    3.42704718E-01 
P    1    1.000000
   2.88875473E-01    4.64458224E-01 
P    1    1.000000
   1.00568237E-01    2.49557899E-01 
D    1    1.000000
   1.09700000E+00    1.00000000E+00 
D    1    1.000000
   3.18000000E-01    1.00000000E+00 
F    1    1.000000
   7.61000000E-01    1.00000000E+00 
****
C    0
S    6    1.000000
   1.35753497E+04    2.22458144E-04 
   2.03523337E+03    1.72327383E-03 
   4.63225624E+02    8.92557153E-03 
   1.31200196E+02    3.57279845E-02 
   4.28530159E+01    1.10762599E-01 
   1.55841858E+01    2.42956276E-01 
S    2    1.000000
   6.20671385E+00    4.14402634E-01 
   2.57648965E+00    2.37449687E-01 
S    1    1.000000
   5.76963394E-01    1.00000000E+00 
S    1    1.000000
   2.29728314E-01    1.00000000E+00 
S    1    1.000000
   9.51644400E-02    1.00000000E+00 
S    1    1.000000
   4.84754014E-02    1.00000000E+00 
P    4    1.000000
   3.46972322E+01    5.33336578E-03 
   7.95826228E+00    3.58641091E-02 
   2.37808269E+00    1.42158733E-01 
   8.14332082E-01    3.42704718E-01 
P    1    1.000000
   2.88875473E-01    4.64458224E-01 
P    1    1.000000
   1.00568237E-01    2.49557899E-01 
D    1    1.000000
   1.09700000E+00    1.00000000E+00 
D    1    1.000000
   3.18000000E-01    1.00000000E+00 
F    1    1.000000
   7.61000000E-01    1.00000000E+00 
****
C    0
S    6    1.000000
   1.35753497E+04    2.22458144E-04 
   2.03523337E+03    1.72327383E-03 
   4.63225624E+02    8.92557153E-03 
   1.31200196E+02    3.57279845E-02 
   4.28530159E+01    1.10762599E-01 
   1.55841858E+01    2.42956276E-01 
S    2    1.000000
   6.20671385E+00    4.14402634E-01 
   2.57648965E+00    2.37449687E-01 
S    1    1.000000
   5.76963394E-01    1.00000000E+00 
S    1    1.000000
   2.29728314E-01    1.00000000E+00 
S    1    1.000000
   9.51644400E-02    1.00000000E+00 
S    1    1.000000
   4.84754014E-02    1.00000000E+00 
P    4    1.000000
   3.46972322E+01    5.33336578E-03 
   7.95826228E+00    3.58641091E-02 
   2.37808269E+00    1.42158733E-01 
   8.14332082E-01    3.42704718E-01 
P    1    1.000000
   2.88875473E-01    4.64458224E-01 
P    1    1.000000
   1.00568237E-01    2.49557899E-01 
D    1    1.000000
   1.09700000E+00    1.00000000E+00 
D    1    1.000000
   3.18000000E-01    1.00000000E+00 
F    1    1.000000
   7.61000000E-01    1.00000000E+00 
****
C    0
S    6    1.000000
   1.35753497E+04    2.22458144E-04 
   2.03523337E+03    1.72327383E-03 
   4.63225624E+02    8.92557153E-03 
   1.31200196E+02    3.57279845E-02 
   4.28530159E+01    1.10762599E-01 
   1.55841858E+01    2.42956276E-01 
S    2    1.000000
   6.20671385E+00    4.14402634E-01 
   2.57648965E+00    2.37449687E-01 
S    1    1.000000
   5.76963394E-01    1.00000000E+00 
S    1    1.000000
   2.29728314E-01    1.00000000E+00 
S    1    1.000000
   9.51644400E-02    1.00000000E+00 
S    1    1.000000
   4.84754014E-02    1.00000000E+00 
P    4    1.000000
   3.46972322E+01    5.33336578E-03 
   7.95826228E+00    3.58641091E-02 
   2.37808269E+00    1.42158733E-01 
   8.14332082E-01    3.42704718E-01 
P    1    1.000000
   2.88875473E-01    4.64458224E-01 
P    1    1.000000
   1.00568237E-01    2.49557899E-01 
D    1    1.000000
   1.09700000E+00    1.00000000E+00 
D    1    1.000000
   3.18000000E-01    1.00000000E+00 
F    1    1.000000
   7.61000000E-01    1.00000000E+00 
****
C    0
S    6    1.000000
   1.35753497E+04    2.22458144E-04 
   2.03523337E+03    1.72327383E-03 
   4.63225624E+02    8.92557153E-03 
   1.31200196E+02    3.57279845E-02 
   4.28530159E+01    1.10762599E-01 
   1.55841858E+01    2.42956276E-01 
S    2    1.000000
   6.20671385E+00    4.14402634E-01 
   2.57648965E+00    2.37449687E-01 
S    1    1.000000
   5.76963394E-01    1.00000000E+00 
S    1    1.000000
   2.29728314E-01    1.00000000E+00 
S    1    1.000000
   9.51644400E-02    1.00000000E+00 
S    1    1.000000
   4.84754014E-02    1.00000000E+00 
P    4    1.000000
   3.46972322E+01    5.33336578E-03 
   7.95826228E+00    3.58641091E-02 
   2.37808269E+00    1.42158733E-01 
   8.14332082E-01    3.42704718E-01 
P    1    1.000000
   2.88875473E-01    4.64458224E-01 
P    1    1.000000
   1.00568237E-01    2.49557899E-01 
D    1    1.000000
   1.09700000E+00    1.00000000E+00 
D    1    1.000000
   3.18000000E-01    1.00000000E+00 
F    1    1.000000
   7.61000000E-01    1.00000000E+00 
****
C    0
S    6    1.000000
   1.35753497E+04    2.22458144E-04 
   2.03523337E+03    1.72327383E-03 
   4.63225624E+02    8.92557153E-03 
   1.31200196E+02    3.57279845E-02 
   4.28530159E+01    1.10762599E-01 
   1.55841858E+01    2.42956276E-01 
S    2    1.000000
   6.20671385E+00    4.14402634E-01 
   2.57648965E+00    2.37449687E-01 
S    1    1.000000
   5.76963394E-01    1.00000000E+00 
S    1    1.000000
   2.29728314E-01    1.00000000E+00 
S    1    1.000000
   9.51644400E-02    1.00000000E+00 
S    1    1.000000
   4.84754014E-02    1.00000000E+00 
P    4    1.000000
   3.46972322E+01    5.33336578E-03 
   7.95826228E+00    3.58641091E-02 
   2.37808269E+00    1.42158733E-01 
   8.14332082E-01    3.42704718E-01 
P    1    1.000000
   2.88875473E-01    4.64458224E-01 
P    1    1.000000
   1.00568237E-01    2.49557899E-01 
D    1    1.000000
   1.09700000E+00    1.00000000E+00 
D    1    1.000000
   3.18000000E-01    1.00000000E+00 
F    1    1.000000
   7.61000000E-01    1.00000000E+00 
****
C    0
S    6    1.000000
   1.35753497E+04    2.22458144E-04 
   2.03523337E+03    1.72327383E-03 
   4.63225624E+02    8.92557153E-03 
   1.31200196E+02    3.57279845E-02 
   4.28530159E+01    1.10762599E-01 
   1.55841858E+01    2.42956276E-01 
S    2    1.000000
   6.20671385E+00    4.14402634E-01 
   2.57648965E+00    2.37449687E-01 
S    1    1.000000
   5.76963394E-01    1.00000000E+00 
S    1    1.000000
   2.29728314E-01    1.00000000E+00 
S    1    1.000000
   9.51644400E-02    1.00000000E+00 
S    1    1.000000
   4.84754014E-02    1.00000000E+00 
P    4    1.000000
   3.46972322E+01    5.33336578E-03 
   7.95826228E+00    3.58641091E-02 
   2.37808269E+00    1.42158733E-01 
   8.14332082E-01    3.42704718E-01 
P    1    1.000000
   2.88875473E-01    4.64458224E-01 
P    1    1.000000
   1.00568237E-01    2.49557899E-01 
D    1    1.000000
   1.09700000E+00    1.00000000E+00 
D    1    1.000000
   3.18000000E-01    1.00000000E+00 
F    1    1.000000
   7.61000000E-01    1.00000000E+00 
****
C    0
S    6    1.000000
   1.35753497E+04    2.22458144E-04 
   2.03523337E+03    1.72327383E-03 
   4.63225624E+02    8.92557153E-03 
   1.31200196E+02    3.57279845E-02 
   4.28530159E+01    1.10762599E-01 
   1.55841858E+01    2.42956276E-01 
S    2    1.000000
   6.20671385E+00    4.14402634E-01 
   2.57648965E+00    2.37449687E-01 
S    1    1.000000
   5.76963394E-01    1.00000000E+00 
S    1    1.000000
   2.29728314E-01    1.00000000E+00 
S    1    1.000000
   9.51644400E-02    1.00000000E+00 
S    1    1.000000
   4.84754014E-02    1.00000000E+00 
P    4    1.000000
   3.46972322E+01    5.33336578E-03 
   7.95826228E+00    3.58641091E-02 
   2.37808269E+00    1.42158733E-01 
   8.14332082E-01    3.42704718E-01 
P    1    1.000000
   2.88875473E-01    4.64458224E-01 
P    1    1.000000
   1.00568237E-01    2.49557899E-01 
D    1    1.000000
   1.09700000E+00    1.00000000E+00 
D    1    1.000000
   3.18000000E-01    1.00000000E+00 
F    1    1.000000
   7.61000000E-01    1.00000000E+00 
****
C    0
S    6    1.000000
   1.35753497E+04    2.22458144E-04 
   2.03523337E+03    1.72327383E-03 
   4.63225624E+02    8.92557153E-03 
   1.31200196E+02    3.57279845E-02 
   4.28530159E+01    1.10762599E-01 
   1.55841858E+01    2.42956276E-01 
S    2    1.000000
   6.20671385E+00    4.14402634E-01 
   2.57648965E+00    2.37449687E-01 
S    1    1.000000
   5.76963394E-01    1.00000000E+00 
S    1    1.000000
   2.29728314E-01    1.00000000E+00 
S    1    1.000000
   9.51644400E-02    1.00000000E+00 
S    1    1.000000
   4.84754014E-02    1.00000000E+00 
P    4    1.000000
   3.46972322E+01    5.33336578E-03 
   7.95826228E+00    3.58641091E-02 
   2.37808269E+00    1.42158733E-01 
   8.14332082E-01    3.42704718E-01 
P    1    1.000000
   2.88875473E-01    4.64458224E-01 
P    1    1.000000
   1.00568237E-01    2.49557899E-01 
D    1    1.000000
   1.09700000E+00    1.00000000E+00 
D    1    1.000000
   3.18000000E-01    1.00000000E+00 
F    1    1.000000
   7.61000000E-01    1.00000000E+00 
****
O    0
S    6    1.000000
   2.70323826E+04    2.17263025E-04 
   4.05238714E+03    1.68386622E-03 
   9.22327227E+02    8.73956163E-03 
   2.61240710E+02    3.52399688E-02 
   8.53546414E+01    1.11535191E-01 
   3.10350352E+01    2.55889540E-01 
S    2    1.000000
   1.22608607E+01    3.97687309E-01 
   4.99870760E+00    2.46278494E-01 
S    1    1.000000
   1.17031082E+00    1.00000000E+00 
S    1    1.000000
   4.64747410E-01    1.00000000E+00 
S    1    1.000000
   1.85045364E-01    1.00000000E+00 
S    1    1.000000
   7.02880263E-02    1.00000000E+00 
P    4    1.000000
   6.32749548E+01    6.06851034E-03 
   1.46270494E+01    4.19125758E-02 
   4.45012235E+00    1.61538411E-01 
   1.52757996E+00    3.57069513E-01 
P    1    1.000000
   5.29351179E-01    4.47942075E-01 
P    1    1.000000
   1.74784213E-01    2.44460697E-01 
P    1    1.000000
   5.11127457E-02    1.00000000E+00 
D    1    1.000000
   2.31400000E+00    1.00000000E+00 
D    1    1.000000
   6.45000000E-01    1.00000000E+00 
F    1    1.000000
   1.42800000E+00    1.00000000E+00 
****
C    0
S    6    1.000000
   1.35753497E+04    2.22458144E-04 
   2.03523337E+03    1.72327383E-03 
   4.63225624E+02    8.92557153E-03 
   1.31200196E+02    3.57279845E-02 
   4.28530159E+01    1.10762599E-01 
   1.55841858E+01    2.42956276E-01 
S    2    1.000000
   6.20671385E+00    4.14402634E-01 
   2.57648965E+00    2.37449687E-01 
S    1    1.000000
   5.76963394E-01    1.00000000E+00 
S    1    1.000000
   2.29728314E-01    1.00000000E+00 
S    1    1.000000
   9.51644400E-02    1.00000000E+00 
S    1    1.000000
   4.84754014E-02    1.00000000E+00 
P    4    1.000000
   3.46972322E+01    5.33336578E-03 
   7.95826228E+00    3.58641091E-02 
   2.37808269E+00    1.42158733E-01 
   8.14332082E-01    3.42704718E-01 
P    1    1.000000
   2.88875473E-01    4.64458224E-01 
P    1    1.000000
   1.00568237E-01    2.49557899E-01 
D    1    1.000000
   1.09700000E+00    1.00000000E+00 
D    1    1.000000
   3.18000000E-01    1.00000000E+00 
F    1    1.000000
   7.61000000E-01    1.00000000E+00 
****
C    0
S    6    1.000000
   1.35753497E+04    2.22458144E-04 
   2.03523337E+03    1.72327383E-03 
   4.63225624E+02    8.92557153E-03 
   1.31200196E+02    3.57279845E-02 
   4.28530159E+01    1.10762599E-01 
   1.55841858E+01    2.42956276E-01 
S    2    1.000000
   6.20671385E+00    4.14402634E-01 
   2.57648965E+00    2.37449687E-01 
S    1    1.000000
   5.76963394E-01    1.00000000E+00 
S    1    1.000000
   2.29728314E-01    1.00000000E+00 
S    1    1.000000
   9.51644400E-02    1.00000000E+00 
S    1    1.000000
   4.84754014E-02    1.00000000E+00 
P    4    1.000000
   3.46972322E+01    5.33336578E-03 
   7.95826228E+00    3.58641091E-02 
   2.37808269E+00    1.42158733E-01 
   8.14332082E-01    3.42704718E-01 
P    1    1.000000
   2.88875473E-01    4.64458224E-01 
P    1    1.000000
   1.00568237E-01    2.49557899E-01 
D    1    1.000000
   1.09700000E+00    1.00000000E+00 
D    1    1.000000
   3.18000000E-01    1.00000000E+00 
F    1    1.000000
   7.61000000E-01    1.00000000E+00 
****
C    0
S    6    1.000000
   1.35753497E+04    2.22458144E-04 
   2.03523337E+03    1.72327383E-03 
   4.63225624E+02    8.92557153E-03 
   1.31200196E+02    3.57279845E-02 
   4.28530159E+01    1.10762599E-01 
   1.55841858E+01    2.42956276E-01 
S    2    1.000000
   6.20671385E+00    4.14402634E-01 
   2.57648965E+00    2.37449687E-01 
S    1    1.000000
   5.76963394E-01    1.00000000E+00 
S    1    1.000000
   2.29728314E-01    1.00000000E+00 
S    1    1.000000
   9.51644400E-02    1.00000000E+00 
S    1    1.000000
   4.84754014E-02    1.00000000E+00 
P    4    1.000000
   3.46972322E+01    5.33336578E-03 
   7.95826228E+00    3.58641091E-02 
   2.37808269E+00    1.42158733E-01 
   8.14332082E-01    3.42704718E-01 
P    1    1.000000
   2.88875473E-01    4.64458224E-01 
P    1    1.000000
   1.00568237E-01    2.49557899E-01 
D    1    1.000000
   1.09700000E+00    1.00000000E+00 
D    1    1.000000
   3.18000000E-01    1.00000000E+00 
F    1    1.000000
   7.61000000E-01    1.00000000E+00 
****
C    0
S    6    1.000000
   1.35753497E+04    2.22458144E-04 
   2.03523337E+03    1.72327383E-03 
   4.63225624E+02    8.92557153E-03 
   1.31200196E+02    3.57279845E-02 
   4.28530159E+01    1.10762599E-01 
   1.55841858E+01    2.42956276E-01 
S    2    1.000000
   6.20671385E+00    4.14402634E-01 
   2.57648965E+00    2.37449687E-01 
S    1    1.000000
   5.76963394E-01    1.00000000E+00 
S    1    1.000000
   2.29728314E-01    1.00000000E+00 
S    1    1.000000
   9.51644400E-02    1.00000000E+00 
S    1    1.000000
   4.84754014E-02    1.00000000E+00 
P    4    1.000000
   3.46972322E+01    5.33336578E-03 
   7.95826228E+00    3.58641091E-02 
   2.37808269E+00    1.42158733E-01 
   8.14332082E-01    3.42704718E-01 
P    1    1.000000
   2.88875473E-01    4.64458224E-01 
P    1    1.000000
   1.00568237E-01    2.49557899E-01 
D    1    1.000000
   1.09700000E+00    1.00000000E+00 
D    1    1.000000
   3.18000000E-01    1.00000000E+00 
F    1    1.000000
   7.61000000E-01    1.00000000E+00 
****
C    0
S    6    1.000000
   1.35753497E+04    2.22458144E-04 
   2.03523337E+03    1.72327383E-03 
   4.63225624E+02    8.92557153E-03 
   1.31200196E+02    3.57279845E-02 
   4.28530159E+01    1.10762599E-01 
   1.55841858E+01    2.42956276E-01 
S    2    1.000000
   6.20671385E+00    4.14402634E-01 
   2.57648965E+00    2.37449687E-01 
S    1    1.000000
   5.76963394E-01    1.00000000E+00 
S    1    1.000000
   2.29728314E-01    1.00000000E+00 
S    1    1.000000
   9.51644400E-02    1.00000000E+00 
S    1    1.000000
   4.84754014E-02    1.00000000E+00 
P    4    1.000000
   3.46972322E+01    5.33336578E-03 
   7.95826228E+00    3.58641091E-02 
   2.37808269E+00    1.42158733E-01 
   8.14332082E-01    3.42704718E-01 
P    1    1.000000
   2.88875473E-01    4.64458224E-01 
P    1    1.000000
   1.00568237E-01    2.49557899E-01 
D    1    1.000000
   1.09700000E+00    1.00000000E+00 
D    1    1.000000
   3.18000000E-01    1.00000000E+00 
F    1    1.000000
   7.61000000E-01    1.00000000E+00 
****
C    0
S    6    1.000000
   1.35753497E+04    2.22458144E-04 
   2.03523337E+03    1.72327383E-03 
   4.63225624E+02    8.92557153E-03 
   1.31200196E+02    3.57279845E-02 
   4.28530159E+01    1.10762599E-01 
   1.55841858E+01    2.42956276E-01 
S    2    1.000000
   6.20671385E+00    4.14402634E-01 
   2.57648965E+00    2.37449687E-01 
S    1    1.000000
   5.76963394E-01    1.00000000E+00 
S    1    1.000000
   2.29728314E-01    1.00000000E+00 
S    1    1.000000
   9.51644400E-02    1.00000000E+00 
S    1    1.000000
   4.84754014E-02    1.00000000E+00 
P    4    1.000000
   3.46972322E+01    5.33336578E-03 
   7.95826228E+00    3.58641091E-02 
   2.37808269E+00    1.42158733E-01 
   8.14332082E-01    3.42704718E-01 
P    1    1.000000
   2.88875473E-01    4.64458224E-01 
P    1    1.000000
   1.00568237E-01    2.49557899E-01 
D    1    1.000000
   1.09700000E+00    1.00000000E+00 
D    1    1.000000
   3.18000000E-01    1.00000000E+00 
F    1    1.000000
   7.61000000E-01    1.00000000E+00 
****
O    0
S    6    1.000000
   2.70323826E+04    2.17263025E-04 
   4.05238714E+03    1.68386622E-03 
   9.22327227E+02    8.73956163E-03 
   2.61240710E+02    3.52399688E-02 
   8.53546414E+01    1.11535191E-01 
   3.10350352E+01    2.55889540E-01 
S    2    1.000000
   1.22608607E+01    3.97687309E-01 
   4.99870760E+00    2.46278494E-01 
S    1    1.000000
   1.17031082E+00    1.00000000E+00 
S    1    1.000000
   4.64747410E-01    1.00000000E+00 
S    1    1.000000
   1.85045364E-01    1.00000000E+00 
S    1    1.000000
   7.02880263E-02    1.00000000E+00 
P    4    1.000000
   6.32749548E+01    6.06851034E-03 
   1.46270494E+01    4.19125758E-02 
   4.45012235E+00    1.61538411E-01 
   1.52757996E+00    3.57069513E-01 
P    1    1.000000
   5.29351179E-01    4.47942075E-01 
P    1    1.000000
   1.74784213E-01    2.44460697E-01 
P    1    1.000000
   5.11127457E-02    1.00000000E+00 
D    1    1.000000
   2.31400000E+00    1.00000000E+00 
D    1    1.000000
   6.45000000E-01    1.00000000E+00 
F    1    1.000000
   1.42800000E+00    1.00000000E+00 
****
H    0
S    3    1.000000
   3.40613410E+01    6.02519780E-03 
   5.12357460E+00    4.50210940E-02 
   1.16466260E+00    2.01897260E-01 
S    1    1.000000
   3.27230410E-01    1.00000000E+00 
S    1    1.000000
   1.03072410E-01    1.00000000E+00 
P    1    1.000000
   8.00000000E-01    1.00000000E+00 
****
O    0
S    6    1.000000
   2.70323826E+04    2.17263025E-04 
   4.05238714E+03    1.68386622E-03 
   9.22327227E+02    8.73956163E-03 
   2.61240710E+02    3.52399688E-02 
   8.53546414E+01    1.11535191E-01 
   3.10350352E+01    2.55889540E-01 
S    2    1.000000
   1.22608607E+01    3.97687309E-01 
   4.99870760E+00    2.46278494E-01 
S    1    1.000000
   1.17031082E+00    1.00000000E+00 
S    1    1.000000
   4.64747410E-01    1.00000000E+00 
S    1    1.000000
   1.85045364E-01    1.00000000E+00 
S    1    1.000000
   7.02880263E-02    1.00000000E+00 
P    4    1.000000
   6.32749548E+01    6.06851034E-03 
   1.46270494E+01    4.19125758E-02 
   4.45012235E+00    1.61538411E-01 
   1.52757996E+00    3.57069513E-01 
P    1    1.000000
   5.29351179E-01    4.47942075E-01 
P    1    1.000000
   1.74784213E-01    2.44460697E-01 
P    1    1.000000
   5.11127457E-02    1.00000000E+00 
D    1    1.000000
   2.31400000E+00    1.00000000E+00 
D    1    1.000000
   6.45000000E-01    1.00000000E+00 
F    1    1.000000
   1.42800000E+00    1.00000000E+00 
****
H    0
S    3    1.000000
   3.40613410E+01    6.02519780E-03 
   5.12357460E+00    4.50210940E-02 
   1.16466260E+00    2.01897260E-01 
S    1    1.000000
   3.27230410E-01    1.00000000E+00 
S    1    1.000000
   1.03072410E-01    1.00000000E+00 
P    1    1.000000
   8.00000000E-01    1.00000000E+00 
****
H    0
S    3    1.000000
   3.40613410E+01    6.02519780E-03 
   5.12357460E+00    4.50210940E-02 
   1.16466260E+00    2.01897260E-01 
S    1    1.000000
   3.27230410E-01    1.00000000E+00 
S    1    1.000000
   1.03072410E-01    1.00000000E+00 
P    1    1.000000
   8.00000000E-01    1.00000000E+00 
****
O    0
S    6    1.000000
   2.70323826E+04    2.17263025E-04 
   4.05238714E+03    1.68386622E-03 
   9.22327227E+02    8.73956163E-03 
   2.61240710E+02    3.52399688E-02 
   8.53546414E+01    1.11535191E-01 
   3.10350352E+01    2.55889540E-01 
S    2    1.000000
   1.22608607E+01    3.97687309E-01 
   4.99870760E+00    2.46278494E-01 
S    1    1.000000
   1.17031082E+00    1.00000000E+00 
S    1    1.000000
   4.64747410E-01    1.00000000E+00 
S    1    1.000000
   1.85045364E-01    1.00000000E+00 
S    1    1.000000
   7.02880263E-02    1.00000000E+00 
P    4    1.000000
   6.32749548E+01    6.06851034E-03 
   1.46270494E+01    4.19125758E-02 
   4.45012235E+00    1.61538411E-01 
   1.52757996E+00    3.57069513E-01 
P    1    1.000000
   5.29351179E-01    4.47942075E-01 
P    1    1.000000
   1.74784213E-01    2.44460697E-01 
P    1    1.000000
   5.11127457E-02    1.00000000E+00 
D    1    1.000000
   2.31400000E+00    1.00000000E+00 
D    1    1.000000
   6.45000000E-01    1.00000000E+00 
F    1    1.000000
   1.42800000E+00    1.00000000E+00 
****
H    0
S    3    1.000000
   3.40613410E+01    6.02519780E-03 
   5.12357460E+00    4.50210940E-02 
   1.16466260E+00    2.01897260E-01 
S    1    1.000000
   3.27230410E-01    1.00000000E+00 
S    1    1.000000
   1.03072410E-01    1.00000000E+00 
P    1    1.000000
   8.00000000E-01    1.00000000E+00 
****
O    0
S    6    1.000000
   2.70323826E+04    2.17263025E-04 
   4.05238714E+03    1.68386622E-03 
   9.22327227E+02    8.73956163E-03 
   2.61240710E+02    3.52399688E-02 
   8.53546414E+01    1.11535191E-01 
   3.10350352E+01    2.55889540E-01 
S    2    1.000000
   1.22608607E+01    3.97687309E-01 
   4.99870760E+00    2.46278494E-01 
S    1    1.000000
   1.17031082E+00    1.00000000E+00 
S    1    1.000000
   4.64747410E-01    1.00000000E+00 
S    1    1.000000
   1.85045364E-01    1.00000000E+00 
S    1    1.000000
   7.02880263E-02    1.00000000E+00 
P    4    1.000000
   6.32749548E+01    6.06851034E-03 
   1.46270494E+01    4.19125758E-02 
   4.45012235E+00    1.61538411E-01 
   1.52757996E+00    3.57069513E-01 
P    1    1.000000
   5.29351179E-01    4.47942075E-01 
P    1    1.000000
   1.74784213E-01    2.44460697E-01 
P    1    1.000000
   5.11127457E-02    1.00000000E+00 
D    1    1.000000
   2.31400000E+00    1.00000000E+00 
D    1    1.000000
   6.45000000E-01    1.00000000E+00 
F    1    1.000000
   1.42800000E+00    1.00000000E+00 
****
O    0
S    6    1.000000
   2.70323826E+04    2.17263025E-04 
   4.05238714E+03    1.68386622E-03 
   9.22327227E+02    8.73956163E-03 
   2.61240710E+02    3.52399688E-02 
   8.53546414E+01    1.11535191E-01 
   3.10350352E+01    2.55889540E-01 
S    2    1.000000
   1.22608607E+01    3.97687309E-01 
   4.99870760E+00    2.46278494E-01 
S    1    1.000000
   1.17031082E+00    1.00000000E+00 
S    1    1.000000
   4.64747410E-01    1.00000000E+00 
S    1    1.000000
   1.85045364E-01    1.00000000E+00 
S    1    1.000000
   7.02880263E-02    1.00000000E+00 
P    4    1.000000
   6.32749548E+01    6.06851034E-03 
   1.46270494E+01    4.19125758E-02 
   4.45012235E+00    1.61538411E-01 
   1.52757996E+00    3.57069513E-01 
P    1    1.000000
   5.29351179E-01    4.47942075E-01 
P    1    1.000000
   1.74784213E-01    2.44460697E-01 
P    1    1.000000
   5.11127457E-02    1.00000000E+00 
D    1    1.000000
   2.31400000E+00    1.00000000E+00 
D    1    1.000000
   6.45000000E-01    1.00000000E+00 
F    1    1.000000
   1.42800000E+00    1.00000000E+00 
****
O    0
S    6    1.000000
   2.70323826E+04    2.17263025E-04 
   4.05238714E+03    1.68386622E-03 
   9.22327227E+02    8.73956163E-03 
   2.61240710E+02    3.52399688E-02 
   8.53546414E+01    1.11535191E-01 
   3.10350352E+01    2.55889540E-01 
S    2    1.000000
   1.22608607E+01    3.97687309E-01 
   4.99870760E+00    2.46278494E-01 
S    1    1.000000
   1.17031082E+00    1.00000000E+00 
S    1    1.000000
   4.64747410E-01    1.00000000E+00 
S    1    1.000000
   1.85045364E-01    1.00000000E+00 
S    1    1.000000
   7.02880263E-02    1.00000000E+00 
P    4    1.000000
   6.32749548E+01    6.06851034E-03 
   1.46270494E+01    4.19125758E-02 
   4.45012235E+00    1.61538411E-01 
   1.52757996E+00    3.57069513E-01 
P    1    1.000000
   5.29351179E-01    4.47942075E-01 
P    1    1.000000
   1.74784213E-01    2.44460697E-01 
P    1    1.000000
   5.11127457E-02    1.00000000E+00 
D    1    1.000000
   2.31400000E+00    1.00000000E+00 
D    1    1.000000
   6.45000000E-01    1.00000000E+00 
F    1    1.000000
   1.42800000E+00    1.00000000E+00 
****
H    0
S    3    1.000000
   3.40613410E+01    6.02519780E-03 
   5.12357460E+00    4.50210940E-02 
   1.16466260E+00    2.01897260E-01 
S    1    1.000000
   3.27230410E-01    1.00000000E+00 
S    1    1.000000
   1.03072410E-01    1.00000000E+00 
P    1    1.000000
   8.00000000E-01    1.00000000E+00 
****
H    0
S    3    1.000000
   3.40613410E+01    6.02519780E-03 
   5.12357460E+00    4.50210940E-02 
   1.16466260E+00    2.01897260E-01 
S    1    1.000000
   3.27230410E-01    1.00000000E+00 
S    1    1.000000
   1.03072410E-01    1.00000000E+00 
P    1    1.000000
   8.00000000E-01    1.00000000E+00 
****
H    0
S    3    1.000000
   3.40613410E+01    6.02519780E-03 
   5.12357460E+00    4.50210940E-02 
   1.16466260E+00    2.01897260E-01 
S    1    1.000000
   3.27230410E-01    1.00000000E+00 
S    1    1.000000
   1.03072410E-01    1.00000000E+00 
P    1    1.000000
   8.00000000E-01    1.00000000E+00 
****
H    0
S    3    1.000000
   3.40613410E+01    6.02519780E-03 
   5.12357460E+00    4.50210940E-02 
   1.16466260E+00    2.01897260E-01 
S    1    1.000000
   3.27230410E-01    1.00000000E+00 
S    1    1.000000
   1.03072410E-01    1.00000000E+00 
P    1    1.000000
   8.00000000E-01    1.00000000E+00 
****
H    0
S    3    1.000000
   3.40613410E+01    6.02519780E-03 
   5.12357460E+00    4.50210940E-02 
   1.16466260E+00    2.01897260E-01 
S    1    1.000000
   3.27230410E-01    1.00000000E+00 
S    1    1.000000
   1.03072410E-01    1.00000000E+00 
P    1    1.000000
   8.00000000E-01    1.00000000E+00 
****
C    0
S    6    1.000000
   1.35753497E+04    2.22458144E-04 
   2.03523337E+03    1.72327383E-03 
   4.63225624E+02    8.92557153E-03 
   1.31200196E+02    3.57279845E-02 
   4.28530159E+01    1.10762599E-01 
   1.55841858E+01    2.42956276E-01 
S    2    1.000000
   6.20671385E+00    4.14402634E-01 
   2.57648965E+00    2.37449687E-01 
S    1    1.000000
   5.76963394E-01    1.00000000E+00 
S    1    1.000000
   2.29728314E-01    1.00000000E+00 
S    1    1.000000
   9.51644400E-02    1.00000000E+00 
S    1    1.000000
   4.84754014E-02    1.00000000E+00 
P    4    1.000000
   3.46972322E+01    5.33336578E-03 
   7.95826228E+00    3.58641091E-02 
   2.37808269E+00    1.42158733E-01 
   8.14332082E-01    3.42704718E-01 
P    1    1.000000
   2.88875473E-01    4.64458224E-01 
P    1    1.000000
   1.00568237E-01    2.49557899E-01 
D    1    1.000000
   1.09700000E+00    1.00000000E+00 
D    1    1.000000
   3.18000000E-01    1.00000000E+00 
F    1    1.000000
   7.61000000E-01    1.00000000E+00 
****
H    0
S    3    1.000000
   3.40613410E+01    6.02519780E-03 
   5.12357460E+00    4.50210940E-02 
   1.16466260E+00    2.01897260E-01 
S    1    1.000000
   3.27230410E-01    1.00000000E+00 
S    1    1.000000
   1.03072410E-01    1.00000000E+00 
P    1    1.000000
   8.00000000E-01    1.00000000E+00 
****
H    0
S    3    1.000000
   3.40613410E+01    6.02519780E-03 
   5.12357460E+00    4.50210940E-02 
   1.16466260E+00    2.01897260E-01 
S    1    1.000000
   3.27230410E-01    1.00000000E+00 
S    1    1.000000
   1.03072410E-01    1.00000000E+00 
P    1    1.000000
   8.00000000E-01    1.00000000E+00 
****
H    0
S    3    1.000000
   3.40613410E+01    6.02519780E-03 
   5.12357460E+00    4.50210940E-02 
   1.16466260E+00    2.01897260E-01 
S    1    1.000000
   3.27230410E-01    1.00000000E+00 
S    1    1.000000
   1.03072410E-01    1.00000000E+00 
P    1    1.000000
   8.00000000E-01    1.00000000E+00 
****
H    0
S    3    1.000000
   3.40613410E+01    6.02519780E-03 
   5.12357460E+00    4.50210940E-02 
   1.16466260E+00    2.01897260E-01 
S    1    1.000000
   3.27230410E-01    1.00000000E+00 
S    1    1.000000
   1.03072410E-01    1.00000000E+00 
P    1    1.000000
   8.00000000E-01    1.00000000E+00 
****
$end
-----------------------------------------------------------------------
 There are 335 shells and 835 basis functions

 Total QAlloc Memory Limit  64000 MB
 Mega-Array Size      1956 MB
 MEM_STATIC part      2000 MB

 User-specified dielectric constants (eps_0 = 78.39, eps_inf = 1.78)
 Using C-PCM dielectric factor f(eps) = (eps-1)/eps = 0.987243
 Static dielectric constant eps = 78.39
 Discretize the solute cavity surface with Lebedev spheres
	Using 110 Lebedev grid points for each H atom
	Using 194 Lebedev grid points for other atoms
	Atomic van der Waals radii (Bondi set) will be scaled by 1.20
 Using smooth SwiG surface discretization
 Remove points where switching function is < 1.0e-08
 Keep 2390 surface tesserae and discard 3502 interior tesserae
 Molecular Surface Area = 328.215 Angst**2

 A cutoff of  1.0D-12 yielded  39108 shell pairs
 There are    227630 function pairs (    287795 Cartesian)
 Smallest overlap matrix eigenvalue = 4.12E-06

 Scale SEOQF with 1.000000e-02/1.000000e-02/1.000000e-01

 Standard Electronic Orientation quadrupole field applied
 Nucleus-field energy     =     0.0000000084 hartrees
 Guess from superposition of atomic densities
 Warning:  Energy on first SCF cycle will be non-variational
 SAD guess density has 165.000000 electrons

 -----------------------------------------------------------------------
  General SCF calculation program by
  Eric Jon Sundstrom, Paul Horn, Yuezhi Mao, Dmitri Zuev, Alec White,
  David Stuck, Shaama M.S., Shane Yost, Joonho Lee, David Small,
  Daniel Levine, Susi Lehtola, Hugh Burton, Evgeny Epifanovsky,
  Bang C. Huynh
 -----------------------------------------------------------------------
 Exchange:     0.1900 Hartree-Fock + 0.3500 B88 + 0.4600 muB88 + LR-HF
 Correlation:  0.1900 VWN5 + 0.8100 LYP
 Using SG-1 standard quadrature grid
 using 16 threads for integral computing
 -------------------------------------------------------
 OpenMP Integral computing Module                
 Release: version 1.0, May 2013, Q-Chem Inc. Pittsburgh 
 -------------------------------------------------------
 C-PCM solvent model [f = (eps-1)/eps], solve by matrix inversion
 DFT Correlation          Energy =  -6.72919893184767
 DFT Exchange             Energy = -102.97004042260222
 HF Exchange              Energy = -42.27306695469439
 One-Electron             Energy = -5258.69506237193764
 SCRF wf-dependent energy Energy =   0.00000000000000
 Total Coulomb            Energy = 2391.78672048271210
 Nuclear repulsion Energy = 1867.84289796997314
 A restricted SCF calculation will be
 performed using DIIS
 SCF converges when DIIS error is below 1.0e-08
 DFT Correlation          Energy =  -6.72919893184767
 DFT Exchange             Energy = -102.97004042260222
 HF Exchange              Energy = -42.27306695469439
 One-Electron             Energy = -5258.69506237193764
 SCRF wf-dependent energy Energy =   0.00000000000000
 Total Coulomb            Energy = 2391.78672048271210
 ---------------------------------------
  Cycle       Energy         DIIS error
 ---------------------------------------
 DFT Correlation          Energy =  -6.77692979084644
 DFT Exchange             Energy = -104.85431273414623
 HF Exchange              Energy = -40.66279180199427
 One-Electron             Energy = -5240.48297076020572
 SCRF wf-dependent energy Energy = -18.37466505697466
 Total Coulomb            Energy = 2399.67477579616843
 Nuclear repulsion Energy = 1867.84289796997314
    1   -1151.0377502284      2.02e-02  
 DFT Correlation          Energy =  -6.72696097771749
 DFT Exchange             Energy = -103.35635769975558
 HF Exchange              Energy = -40.25689937783410
 One-Electron             Energy = -5228.62942126534290
 SCRF wf-dependent energy Energy = -17.48647879485179
 Total Coulomb            Energy = 2384.97626391244921
 Nuclear repulsion Energy = 1867.84289796997314
    2   -1143.6339963780      1.93e-03  
 DFT Correlation          Energy =  -6.75027369991826
 DFT Exchange             Energy = -104.11181050889516
 HF Exchange              Energy = -40.48020088113605
 One-Electron             Energy = -5232.94815565803856
 SCRF wf-dependent energy Energy = -18.37747149346728
 Total Coulomb            Energy = 2390.93793668288117
 Nuclear repulsion Energy = 1867.84289796997314
    3   -1143.6369562331      2.05e-03  
 DFT Correlation          Energy =  -6.75051515113779
 DFT Exchange             Energy = -104.09200799319034
 HF Exchange              Energy = -40.47415473055344
 One-Electron             Energy = -5234.04920722308179
 SCRF wf-dependent energy Energy = -18.04524318125732
 Total Coulomb            Energy = 2391.67660084959425
 Nuclear repulsion Energy = 1867.84289796997314
    4   -1143.8870775886      2.77e-04  
 DFT Correlation          Energy =  -6.75040450252767
 DFT Exchange             Energy = -104.09696085392694
 HF Exchange              Energy = -40.47651689596413
 One-Electron             Energy = -5233.81821038161979
 SCRF wf-dependent energy Energy = -18.12045334233744
 Total Coulomb            Energy = 2391.52725420419165
 Nuclear repulsion Energy = 1867.84289796997314
    5   -1143.8916294597      1.05e-04  
 DFT Correlation          Energy =  -6.75016898415373
 DFT Exchange             Energy = -104.09117277040016
 HF Exchange              Energy = -40.47539737285919
 One-Electron             Energy = -5233.71597890361863
 SCRF wf-dependent energy Energy = -18.12382599663647
 Total Coulomb            Energy = 2391.42117464562261
 Nuclear repulsion Energy = 1867.84289796997314
    6   -1143.8923938022      3.22e-05  
 DFT Correlation          Energy =  -6.75023096388931
 DFT Exchange             Energy = -104.09233588421588
 HF Exchange              Energy = -40.47579503295121
 One-Electron             Energy = -5233.74673125452864
 SCRF wf-dependent energy Energy = -18.12168531195607
 Total Coulomb            Energy = 2391.45140123492865
 Nuclear repulsion Energy = 1867.84289796997314
    7   -1143.8924714121      8.70e-06  
 DFT Correlation          Energy =  -6.75024996508433
 DFT Exchange             Energy = -104.09291570493254
 HF Exchange              Energy = -40.47599044362653
 One-Electron             Energy = -5233.75975528177514
 SCRF wf-dependent energy Energy = -18.11928590714660
 Total Coulomb            Energy = 2391.46281843473980
 Nuclear repulsion Energy = 1867.84289796997314
    8   -1143.8924792426      3.40e-06  
 DFT Correlation          Energy =  -6.75023962672493
 DFT Exchange             Energy = -104.09259797527319
 HF Exchange              Energy = -40.47593674272544
 One-Electron             Energy = -5233.75382379154235
 SCRF wf-dependent energy Energy = -18.12004372110096
 Total Coulomb            Energy = 2391.45726247396033
 Nuclear repulsion Energy = 1867.84289796997314
    9   -1143.8924808979      1.42e-06  
 DFT Correlation          Energy =  -6.75023964839517
 DFT Exchange             Energy = -104.09265136314420
 HF Exchange              Energy = -40.47596120944507
 One-Electron             Energy = -5233.75399506569102
 SCRF wf-dependent energy Energy = -18.11994038448688
 Total Coulomb            Energy = 2391.45740818931563
 Nuclear repulsion Energy = 1867.84289796997314
   10   -1143.8924814134      5.52e-07  
 DFT Correlation          Energy =  -6.75024049366380
 DFT Exchange             Energy = -104.09265199269795
 HF Exchange              Energy = -40.47596340588972
 One-Electron             Energy = -5233.75464537197240
 SCRF wf-dependent energy Energy = -18.11979120305773
 Total Coulomb            Energy = 2391.45791295429626
 Nuclear repulsion Energy = 1867.84289796997314
   11   -1143.8924815119      3.43e-07  
 DFT Correlation          Energy =  -6.75024044673681
 DFT Exchange             Energy = -104.09265830795009
 HF Exchange              Energy = -40.47596534904034
 One-Electron             Energy = -5233.75478685814141
 SCRF wf-dependent energy Energy = -18.11971693841838
 Total Coulomb            Energy = 2391.45798838264000
 Nuclear repulsion Energy = 1867.84289796997314
   12   -1143.8924815430      9.65e-08  
 DFT Correlation          Energy =  -6.75024026734495
 DFT Exchange             Energy = -104.09265156811563
 HF Exchange              Energy = -40.47596333055461
 One-Electron             Energy = -5233.75478184154326
 SCRF wf-dependent energy Energy = -18.11968387215984
 Total Coulomb            Energy = 2391.45794136107406
 Nuclear repulsion Energy = 1867.84289796997314
   13   -1143.8924815477      7.31e-08  
 DFT Correlation          Energy =  -6.75024033849651
 DFT Exchange             Energy = -104.09265370274355
 HF Exchange              Energy = -40.47596377361769
 One-Electron             Energy = -5233.75486080955125
 SCRF wf-dependent energy Energy = -18.11965929728831
 Total Coulomb            Energy = 2391.45799840316022
 Nuclear repulsion Energy = 1867.84289796997314
   14   -1143.8924815487      1.84e-08  
   15   -1143.8924815486      7.19e-09  Convergence criterion met
 ---------------------------------------
 DFT Correlation          Energy =  -6.75024033849651
 DFT Exchange             Energy = -104.09265370274355
 HF Exchange              Energy = -40.47596377361769
 One-Electron             Energy = -5233.75486080955125
 SCRF wf-dependent energy Energy = -18.11965929728831
 Total Coulomb            Energy = 2391.45799840316022
 Final Alpha MO Eigenvalues
            1           2           3           4           5           6
    1 -19.3243863 -19.2585714 -19.2575676 -19.2571172 -19.2556637 -19.2497115
            7           8           9          10          11          12
    1 -19.2418709 -10.3889831 -10.3665597 -10.3578118 -10.3570846 -10.3558681
           13          14          15          16          17          18
    1 -10.3355417 -10.3315240 -10.3282347 -10.3163263 -10.3013129 -10.2983655
           19          20          21          22          23          24
    1 -10.2920973 -10.2726731 -10.2688682 -10.2685244 -10.2670546  -1.2522467
           25          26          27          28          29          30
    1  -1.1851910  -1.1763114  -1.1758313  -1.1722384  -1.1600331  -1.1435026
           31          32          33          34          35          36
    1  -0.9895265  -0.9687447  -0.9406092  -0.9046045  -0.8638006  -0.8528108
           37          38          39          40          41          42
    1  -0.8461213  -0.8018970  -0.7887533  -0.7800264  -0.7344354  -0.7297977
           43          44          45          46          47          48
    1  -0.7102699  -0.6939406  -0.6651269  -0.6537920  -0.6482574  -0.6439063
           49          50          51          52          53          54
    1  -0.6258792  -0.6054427  -0.5984701  -0.5961007  -0.5797107  -0.5735316
           55          56          57          58          59          60
    1  -0.5605632  -0.5591192  -0.5457154  -0.5289738  -0.5287544  -0.5268991
           61          62          63          64          65          66
    1  -0.5213452  -0.5104185  -0.5076010  -0.5067126  -0.4973497  -0.4940659
           67          68          69          70          71          72
    1  -0.4780876  -0.4740020  -0.4648334  -0.4634745  -0.4543537  -0.4490847
           73          74          75          76          77          78
    1  -0.4450396  -0.4341710  -0.4237603  -0.4224749  -0.4026347  -0.3751140
           79          80          81          82          83          84
    1  -0.3335397  -0.3045439  -0.3006757  -0.2751485  -0.0901477  -0.0105578
           85          86          87          88          89          90
    1   0.0222254   0.0227961   0.0270443   0.0337255   0.0354541   0.0416799
           91          92          93          94          95          96
    1   0.0439216   0.0462130   0.0551772   0.0598949   0.0699373   0.0716309
           97          98          99         100         101         102
    1   0.0813233   0.0844257   0.0853769   0.0875360   0.0969498   0.1001022
          103         104         105         106         107         108
    1   0.1050051   0.1074443   0.1094696   0.1123486   0.1200484   0.1246823
          109         110         111         112         113         114
    1   0.1284225   0.1339779   0.1349984   0.1410745   0.1445052   0.1458114
          115         116         117         118         119         120
    1   0.1515310   0.1606607   0.1625673   0.1679602   0.1766033   0.1777968
          121         122         123         124         125         126
    1   0.1827520   0.1839776   0.1876158   0.1932257   0.1947426   0.2028853
          127         128         129         130         131         132
    1   0.2083040   0.2107220   0.2165572   0.2195843   0.2217356   0.2301989
          133         134         135         136         137         138
    1   0.2302605   0.2314059   0.2369897   0.2406514   0.2442466   0.2460111
          139         140         141         142         143         144
    1   0.2528545   0.2620806   0.2669195   0.2715001   0.2728595   0.2775416
          145         146         147         148         149         150
    1   0.2788781   0.2837408   0.2912157   0.2976806   0.2997700   0.3024245
          151         152         153         154         155         156
    1   0.3048660   0.3082284   0.3122660   0.3135519   0.3157204   0.3238072
          157         158         159         160         161         162
    1   0.3284865   0.3311297   0.3337674   0.3400603   0.3409322   0.3471083
          163         164         165         166         167         168
    1   0.3538779   0.3567281   0.3587788   0.3612708   0.3678576   0.3700876
          169         170         171         172         173         174
    1   0.3756354   0.3790747   0.3871029   0.3925158   0.3930829   0.3997529
          175         176         177         178         179         180
    1   0.4043759   0.4065631   0.4130062   0.4178181   0.4215316   0.4244598
          181         182         183         184         185         186
    1   0.4299389   0.4331953   0.4381784   0.4386657   0.4484985   0.4514079
          187         188         189         190         191         192
    1   0.4539347   0.4603194   0.4638155   0.4660821   0.4702642   0.4709042
          193         194         195         196         197         198
    1   0.4757373   0.4789639   0.4839745   0.4884978   0.4935202   0.4966852
          199         200         201         202         203         204
    1   0.5029549   0.5135315   0.5155020   0.5201205   0.5238591   0.5271019
          205         206         207         208         209         210
    1   0.5312384   0.5342879   0.5406303   0.5451429   0.5544338   0.5588410
          211         212         213         214         215         216
    1   0.5599253   0.5633863   0.5704769   0.5737663   0.5819234   0.5855720
          217         218         219         220         221         222
    1   0.5963169   0.5995049   0.6049843   0.6073730   0.6163390   0.6193595
          223         224         225         226         227         228
    1   0.6243676   0.6316658   0.6351935   0.6406047   0.6436555   0.6506677
          229         230         231         232         233         234
    1   0.6544865   0.6561793   0.6602836   0.6654494   0.6727101   0.6748154
          235         236         237         238         239         240
    1   0.6800245   0.6856046   0.6877722   0.6926495   0.7082545   0.7102386
          241         242         243         244         245         246
    1   0.7132450   0.7227065   0.7253282   0.7275468   0.7371189   0.7457936
          247         248         249         250         251         252
    1   0.7461767   0.7503775   0.7586277   0.7662759   0.7680157   0.7740909
          253         254         255         256         257         258
    1   0.7795369   0.7812335   0.7894955   0.7900235   0.7922406   0.7958764
          259         260         261         262         263         264
    1   0.8004611   0.8046296   0.8090490   0.8156561   0.8199377   0.8236196
          265         266         267         268         269         270
    1   0.8279445   0.8351391   0.8380994   0.8532179   0.8537933   0.8616975
          271         272         273         274         275         276
    1   0.8672908   0.8796722   0.8831914   0.8936595   0.8968442   0.9018409
          277         278         279         280         281         282
    1   0.9058432   0.9128713   0.9224750   0.9307588   0.9408308   0.9428380
          283         284         285         286         287         288
    1   0.9504911   0.9723076   0.9831494   0.9859431   0.9927744   1.0126467
          289         290         291         292         293         294
    1   1.0243674   1.0273632   1.0410822   1.0463856   1.0529428   1.0618302
          295         296         297         298         299         300
    1   1.0655000   1.0694255   1.0758234   1.0860046   1.0983984   1.1055663
          301         302         303         304         305         306
    1   1.1115182   1.1125338   1.1244516   1.1294039   1.1371840   1.1436464
          307         308         309         310         311         312
    1   1.1497773   1.1640103   1.1696684   1.1767144   1.1810623   1.1857908
          313         314         315         316         317         318
    1   1.1944426   1.2049002   1.2087916   1.2241374   1.2290913   1.2348119
          319         320         321         322         323         324
    1   1.2386356   1.2534441   1.2669756   1.2756547   1.2912034   1.2937329
          325         326         327         328         329         330
    1   1.3100415   1.3201699   1.3287233   1.3368028   1.3478214   1.3579318
          331         332         333         334         335         336
    1   1.3683035   1.3778292   1.3888694   1.3911041   1.3941279   1.4059152
          337         338         339         340         341         342
    1   1.4211992   1.4320479   1.4408148   1.4453714   1.4538994   1.4603326
          343         344         345         346         347         348
    1   1.4684668   1.4706628   1.4829434   1.4830505   1.4985504   1.5165572
          349         350         351         352         353         354
    1   1.5245489   1.5275825   1.5381676   1.5399171   1.5418344   1.5703143
          355         356         357         358         359         360
    1   1.5738216   1.5775578   1.5833771   1.5839373   1.5869287   1.6035846
          361         362         363         364         365         366
    1   1.6107605   1.6138598   1.6281109   1.6351466   1.6451040   1.6543140
          367         368         369         370         371         372
    1   1.6595442   1.6615049   1.6776678   1.6923355   1.6965994   1.7043951
          373         374         375         376         377         378
    1   1.7072420   1.7096282   1.7228992   1.7243351   1.7361648   1.7477796
          379         380         381         382         383         384
    1   1.7526884   1.7548044   1.7591220   1.7631595   1.7686998   1.7799923
          385         386         387         388         389         390
    1   1.7861877   1.8049118   1.8208464   1.8330577   1.8409316   1.8508703
          391         392         393         394         395         396
    1   1.8549084   1.8604639   1.8802018   1.8915658   1.8955302   1.9003826
          397         398         399         400         401         402
    1   1.9258727   1.9299958   1.9366885   1.9435863   1.9549973   1.9582310
          403         404         405         406         407         408
    1   1.9627522   1.9778729   1.9870462   1.9934290   1.9990426   2.0096304
          409         410         411         412         413         414
    1   2.0193146   2.0313969   2.0369535   2.0424214   2.0492156   2.0519101
          415         416         417         418         419         420
    1   2.0592686   2.0707663   2.0749404   2.0823395   2.0915328   2.0987941
          421         422         423         424         425         426
    1   2.1143670   2.1263505   2.1380035   2.1423619   2.1545067   2.1623905
          427         428         429         430         431         432
    1   2.1689722   2.1767542   2.1821131   2.1872978   2.1928547   2.1954849
          433         434         435         436         437         438
    1   2.2057180   2.2098356   2.2115619   2.2170654   2.2300617   2.2374473
          439         440         441         442         443         444
    1   2.2445003   2.2599360   2.2629443   2.2732237   2.2825364   2.2896806
          445         446         447         448         449         450
    1   2.3025313   2.3028461   2.3232120   2.3329987   2.3433603   2.3466567
          451         452         453         454         455         456
    1   2.3499613   2.3575355   2.3750592   2.3796810   2.3926588   2.4010793
          457         458         459         460         461         462
    1   2.4116061   2.4251183   2.4365962   2.4482682   2.4583609   2.4645287
          463         464         465         466         467         468
    1   2.4784579   2.4867139   2.4911847   2.5000975   2.5262848   2.5288373
          469         470         471         472         473         474
    1   2.5435214   2.5574927   2.5678163   2.5756324   2.5828214   2.5872912
          475         476         477         478         479         480
    1   2.5933013   2.5984805   2.6165359   2.6206913   2.6285755   2.6479858
          481         482         483         484         485         486
    1   2.6566395   2.6651534   2.6716218   2.6810229   2.6842170   2.6900246
          487         488         489         490         491         492
    1   2.6955353   2.7042592   2.7134537   2.7168738   2.7261414   2.7399809
          493         494         495         496         497         498
    1   2.7538668   2.7577013   2.7631595   2.7720914   2.7802200   2.7848257
          499         500         501         502         503         504
    1   2.7910036   2.8012999   2.8231562   2.8268229   2.8324090   2.8450506
          505         506         507         508         509         510
    1   2.8520714   2.8564369   2.8610091   2.8703920   2.8762398   2.8830978
          511         512         513         514         515         516
    1   2.8888329   2.8921190   2.8981757   2.9060923   2.9090451   2.9201318
          517         518         519         520         521         522
    1   2.9352905   2.9414419   2.9430532   2.9510775   2.9617705   2.9692927
          523         524         525         526         527         528
    1   2.9819789   2.9859620   2.9925051   3.0032160   3.0073662   3.0099232
          529         530         531         532         533         534
    1   3.0142489   3.0207196   3.0295821   3.0386634   3.0506392   3.0592515
          535         536         537         538         539         540
    1   3.0622982   3.0684651   3.0767046   3.0811859   3.0915395   3.1019096
          541         542         543         544         545         546
    1   3.1156821   3.1208843   3.1282935   3.1290938   3.1410166   3.1445659
          547         548         549         550         551         552
    1   3.1496599   3.1616826   3.1734621   3.1795232   3.1853817   3.1991681
          553         554         555         556         557         558
    1   3.2043892   3.2065569   3.2137035   3.2163641   3.2239970   3.2332222
          559         560         561         562         563         564
    1   3.2372094   3.2432416   3.2468247   3.2555411   3.2626775   3.2646274
          565         566         567         568         569         570
    1   3.2756530   3.2795910   3.2877628   3.3070065   3.3085561   3.3159976
          571         572         573         574         575         576
    1   3.3195936   3.3267369   3.3300763   3.3366905   3.3491698   3.3497351
          577         578         579         580         581         582
    1   3.3591860   3.3640659   3.3758412   3.3815462   3.3896736   3.3947683
          583         584         585         586         587         588
    1   3.3981548   3.4123960   3.4166977   3.4237296   3.4306121   3.4378573
          589         590         591         592         593         594
    1   3.4422374   3.4489551   3.4519063   3.4575427   3.4624868   3.4667486
          595         596         597         598         599         600
    1   3.4725275   3.4800185   3.4879540   3.4951881   3.5016488   3.5078392
          601         602         603         604         605         606
    1   3.5127083   3.5207624   3.5323291   3.5398226   3.5484487   3.5571104
          607         608         609         610         611         612
    1   3.5635286   3.5817221   3.5927960   3.5967165   3.6039550   3.6096126
          613         614         615         616         617         618
    1   3.6174341   3.6244118   3.6339026   3.6377641   3.6505906   3.6634881
          619         620         621         622         623         624
    1   3.6674197   3.6733291   3.6778415   3.6893816   3.6997108   3.7161213
          625         626         627         628         629         630
    1   3.7330123   3.7388312   3.7447887   3.7516543   3.7578424   3.7747391
          631         632         633         634         635         636
    1   3.7832938   3.8349849   3.8575487   3.8643213   3.8781726   3.8872683
          637         638         639         640         641         642
    1   3.8944608   3.9128468   3.9353336   3.9398265   3.9634306   3.9640300
          643         644         645         646         647         648
    1   4.0087436   4.0196333   4.0316151   4.0325921   4.0398588   4.0469892
          649         650         651         652         653         654
    1   4.0675107   4.0754807   4.0859191   4.0986586   4.1073413   4.1391657
          655         656         657         658         659         660
    1   4.1535326   4.1791403   4.1937330   4.2100296   4.2122899   4.2168548
          661         662         663         664         665         666
    1   4.2220390   4.2313084   4.2417294   4.2494617   4.2643426   4.2661912
          667         668         669         670         671         672
    1   4.2725645   4.2812504   4.2882220   4.3057672   4.3124395   4.3271948
          673         674         675         676         677         678
    1   4.3555734   4.3779467   4.3905122   4.4016617   4.4190579   4.4340931
          679         680         681         682         683         684
    1   4.4463040   4.4631153   4.4861153   4.4951741   4.5128866   4.5268984
          685         686         687         688         689         690
    1   4.5462621   4.5634138   4.5832945   4.5899053   4.6194463   4.6209459
          691         692         693         694         695         696
    1   4.6367542   4.6492122   4.6592213   4.6674049   4.6736512   4.6934260
          697         698         699         700         701         702
    1   4.7050073   4.7521370   4.8071855   4.8097956   4.8310420   4.8682798
          703         704         705         706         707         708
    1   4.8847562   4.9250638   4.9267325   4.9429796   4.9756340   4.9796786
          709         710         711         712         713         714
    1   4.9922762   5.0215874   5.0574192   5.0834300   5.1243895   5.1362777
          715         716         717         718         719         720
    1   5.1483870   5.1671249   5.1998617   5.2563131   5.2731018   5.2760244
          721         722         723         724         725         726
    1   5.3020511   5.3057663   5.3154535   5.3248377   5.3250841   5.3447578
          727         728         729         730         731         732
    1   5.3591045   5.3881649   5.3928419   5.4199679   5.4575378   5.4930426
          733         734         735         736         737         738
    1   5.5030590   5.5103731   5.5200046   5.5231256   5.5283280   5.5463040
          739         740         741         742         743         744
    1   5.5571799   5.5580202   5.5714778   5.5873040   5.6448765   5.6630839
          745         746         747         748         749         750
    1   5.6733584   5.7017576   5.7123381   5.7848814   5.8024754   5.8161354
          751         752         753         754         755         756
    1   5.8284851   5.8665633   5.9048938   5.9230326   5.9239065   5.9972349
          757         758         759         760         761         762
    1   6.0253354   6.0273373   6.0581949   6.0733407   6.1046711   6.1563568
          763         764         765         766         767         768
    1   6.2104039   6.2281160   6.2659095   6.3395089   6.3878687   6.4058707
          769         770         771         772         773         774
    1   6.4382481   6.4509576   6.4563635   6.4625710   6.4671007   6.4830796
          775         776         777         778         779         780
    1   6.4900422   6.4953946   6.5095039   6.5334274   6.5689585   6.6513889
          781         782         783         784         785         786
    1   6.6635807   6.6788500   6.7323833   6.7628018   6.7695233   6.7771331
          787         788         789         790         791         792
    1   6.7853852   6.8317636   6.8773866   6.9060626   6.9088573   6.9178708
          793         794         795         796         797         798
    1   6.9209578   6.9292002   6.9404269   6.9580383   6.9802825   7.0104997
          799         800         801         802         803         804
    1   7.0660306   7.0942388   7.1143128   7.1398818   7.1759967   7.2749503
          805         806         807         808         809         810
    1   7.3278495   7.3672866   7.3996449   7.4112200   7.4768146   7.4860951
          811         812         813         814         815         816
    1   7.5315374   7.5719686  22.4372961  22.4756087  22.5822649  22.8061010
          817         818         819         820         821         822
    1  22.8415102  22.8789648  22.9107131  22.9684517  23.0121923  23.0591714
          823         824         825         826         827         828
    1  23.0855492  23.0973969  23.1889086  23.3628379  23.6034956  23.6623202
          829         830         831         832         833         834
    1  44.0201960  44.1019470  44.1345768  44.1453168  44.2521009  44.4084533
          835
    1  44.6583652
 SCF time:   CPU 6410.90s  wall 606.00s 
 DFT Correlation          Energy =  -6.75024033849651
 DFT Exchange             Energy = -104.09265370274355
 HF Exchange              Energy = -40.47596377361769
 One-Electron             Energy = -5233.75486080955125
 SCRF wf-dependent energy Energy = -18.11965929728831
 Total Coulomb            Energy = 2391.45799840316022
 Nuclear repulsion Energy = 1867.84289796997314

************** Final PCM Free Energy Summary **************
 G_electrostatic  =      -0.09473349 hartree =     -59.44616124 kcal/mol
 G_cavitation     =       0.00000000 hartree =       0.00000000 kcal/mol
 G_dispersion     =       0.00000000 hartree =       0.00000000 kcal/mol
 G_repulsion      =       0.00000000 hartree =       0.00000000 kcal/mol
 --------------------------------------------------
 Non-electrostatic Free Energy =       0.00000000 hartree =       0.00000000 kcal/mol
 Total                         =      -0.09473349 hartree =     -59.44616124 kcal/mol
 --------------------------------------------------
 SCF Energy (H0 + V/2)                       =   -1143.89248155 
 Solute Internal Energy (H0)                 =   -1143.79774806 
 Total Free Energy (H0 + V/2 + non-elec)     =   -1143.89248155 hartree
                                             = -717803.36948122 kcal/mol
***********************************************************

 SCF   energy = -1143.89248155
 Total energy = -1143.89248155
 MAX_CIS_SUBSPACE fits in available memory
 Direct TDDFT/TDA calculation will be performed
 Exchange:     0.1900 Hartree-Fock + 0.3500 B88 + 0.4600 muB88 + LR-HF
 Correlation:  0.1900 VWN5 + 0.8100 LYP
 Using SG-1 standard quadrature grid
 Triplet excitation energies requested
 Singlet excitation energies requested
 Adding PCM contribution to the XC response (LR-PCM)
 Optical dielectric constant (eps_inf) =  1.78
 CIS energy converged when residual is below 10e- 6
 ---------------------------------------------------
 Iter    Rts Conv    Rts Left    Ttl Dev     Max Dev
 ---------------------------------------------------
   1         0           7      0.000890    0.000149
   2         0           7      0.000336    0.000073
   3         0           7      0.000222    0.000120
   4         0           7      0.000131    0.000084
   5         2           5      0.000081    0.000065
   6         3           4      0.000062    0.000055
   7         6           1      0.000021    0.000018
   8         6           1      0.000008    0.000006
   9         6           1      0.000004    0.000002
  10         7           0      0.000003    0.000001    Roots Converged
 ---------------------------------------------------
 Triplets done: starting singlet calculation
 ---------------------------------------------------
 Iter    Rts Conv    Rts Left    Ttl Dev     Max Dev
 ---------------------------------------------------
  11         0           7      0.002313    0.000421
  12         0           7      0.000626    0.000159
  13         0           7      0.000352    0.000087
  14         0           7      0.000209    0.000054
  15         0           7      0.000123    0.000045
  16         3           4      0.000072    0.000028
  17         3           4      0.000037    0.000015
  18         4           3      0.000021    0.000009
  19         4           3      0.000012    0.000006
  20         5           2      0.000006    0.000002
  21         5           2      0.000004    0.000001
  22         7           0      0.000003    0.000001    Roots Converged
 ---------------------------------------------------
 
 ---------------------------------------------------
         TDDFT/TDA Excitation Energies              
 ---------------------------------------------------

 Excited state   1: excitation energy (eV) =       1.8272
 Total energy for state   1:                 -1143.82533299 au
    Multiplicity: Triplet
    Trans. Mom.:  0.0000 X   0.0000 Y   0.0000 Z
    Strength   :     0.0000000000
    D(   78) --> V(    1) amplitude = -0.1571
    D(   79) --> V(    1) amplitude = -0.1349
    D(   80) --> V(    1) amplitude = -0.2481
    D(   80) --> V(    2) amplitude = -0.0798
    D(   82) --> V(    1) amplitude =  0.9264

 Excited state   2: excitation energy (eV) =       2.7158
 Total energy for state   2:                 -1143.79267733 au
    Multiplicity: Triplet
    Trans. Mom.:  0.0000 X   0.0000 Y   0.0000 Z
    Strength   :     0.0000000000
    D(   77) --> V(    1) amplitude = -0.1222
    D(   79) --> V(    4) amplitude = -0.0960
    D(   80) --> V(    1) amplitude =  0.8688
    D(   80) --> V(   10) amplitude =  0.0742
    D(   81) --> V(    1) amplitude =  0.1753
    D(   82) --> V(    1) amplitude =  0.2236
    D(   82) --> V(    2) amplitude = -0.2728
    D(   82) --> V(    4) amplitude = -0.1214
    D(   82) --> V(   10) amplitude =  0.0971

 Excited state   3: excitation energy (eV) =       2.8963
 Total energy for state   3:                 -1143.78604605 au
    Multiplicity: Singlet
    Trans. Mom.:  2.8420 X   2.2839 Y  -0.1730 Z
    Strength   :     0.9453628301
    D(   80) --> V(    1) amplitude = -0.2606
    D(   82) --> V(    1) amplitude =  0.9452

 Excited state   4: excitation energy (eV) =       2.9075
 Total energy for state   4:                 -1143.78563375 au
    Multiplicity: Triplet
    Trans. Mom.:  0.0000 X   0.0000 Y   0.0000 Z
    Strength   :     0.0000000000
    D(   80) --> V(    1) amplitude = -0.1753
    D(   81) --> V(    1) amplitude =  0.9172
    D(   81) --> V(    2) amplitude = -0.2476
    D(   81) --> V(    4) amplitude = -0.1408
    D(   81) --> V(   10) amplitude =  0.1378

 Excited state   5: excitation energy (eV) =       3.4123
 Total energy for state   5:                 -1143.76708082 au
    Multiplicity: Triplet
    Trans. Mom.:  0.0000 X   0.0000 Y   0.0000 Z
    Strength   :     0.0000000000
    D(   73) --> V(    1) amplitude =  0.0991
    D(   75) --> V(    1) amplitude =  0.1138
    D(   78) --> V(    1) amplitude =  0.0780
    D(   79) --> V(    1) amplitude =  0.8800
    D(   79) --> V(    4) amplitude =  0.1039
    D(   80) --> V(    1) amplitude = -0.0733
    D(   80) --> V(    2) amplitude = -0.1740
    D(   80) --> V(    3) amplitude = -0.0805
    D(   80) --> V(    4) amplitude = -0.1810
    D(   82) --> V(    1) amplitude =  0.0946
    D(   82) --> V(    2) amplitude = -0.1818
    D(   82) --> V(   10) amplitude =  0.1499

 Excited state   6: excitation energy (eV) =       3.4970
 Total energy for state   6:                 -1143.76396755 au
    Multiplicity: Singlet
    Trans. Mom.:  0.0181 X   0.4220 Y  -0.2207 Z
    Strength   :     0.0194637968
    D(   79) --> V(    1) amplitude = -0.1123
    D(   80) --> V(    1) amplitude =  0.2352
    D(   81) --> V(    1) amplitude =  0.9390
    D(   81) --> V(    2) amplitude = -0.0892
    D(   82) --> V(    6) amplitude = -0.0977

 Excited state   7: excitation energy (eV) =       3.5626
 Total energy for state   7:                 -1143.76155832 au
    Multiplicity: Singlet
    Trans. Mom.:  1.1655 X   0.6442 Y   0.0315 Z
    Strength   :     0.1548649028
    D(   78) --> V(    1) amplitude = -0.0751
    D(   79) --> V(    1) amplitude = -0.2662
    D(   80) --> V(    1) amplitude =  0.8669
    D(   81) --> V(    1) amplitude = -0.2659
    D(   82) --> V(    1) amplitude =  0.2389
    D(   82) --> V(    2) amplitude = -0.0872

 Excited state   8: excitation energy (eV) =       3.8516
 Total energy for state   8:                 -1143.75093787 au
    Multiplicity: Triplet
    Trans. Mom.:  0.0000 X   0.0000 Y   0.0000 Z
    Strength   :     0.0000000000
    D(   78) --> V(    1) amplitude =  0.2360
    D(   78) --> V(   27) amplitude =  0.0804
    D(   79) --> V(    2) amplitude = -0.2181
    D(   80) --> V(    1) amplitude =  0.2125
    D(   80) --> V(    2) amplitude = -0.3803
    D(   80) --> V(    6) amplitude =  0.0764
    D(   80) --> V(   10) amplitude = -0.1271
    D(   81) --> V(    6) amplitude = -0.0962
    D(   82) --> V(    1) amplitude =  0.0981
    D(   82) --> V(    2) amplitude =  0.7707
    D(   82) --> V(   10) amplitude =  0.0933

 Excited state   9: excitation energy (eV) =       4.0691
 Total energy for state   9:                 -1143.74294430 au
    Multiplicity: Triplet
    Trans. Mom.:  0.0000 X   0.0000 Y   0.0000 Z
    Strength   :     0.0000000000
    D(   64) --> V(    1) amplitude =  0.1173
    D(   75) --> V(    1) amplitude = -0.1590
    D(   76) --> V(    1) amplitude = -0.0872
    D(   77) --> V(    1) amplitude = -0.3029
    D(   78) --> V(    1) amplitude =  0.7581
    D(   78) --> V(    2) amplitude =  0.1658
    D(   79) --> V(    1) amplitude = -0.1848
    D(   80) --> V(    1) amplitude = -0.1486
    D(   80) --> V(    4) amplitude = -0.1440
    D(   81) --> V(    6) amplitude =  0.0847
    D(   82) --> V(    2) amplitude = -0.2176
    D(   82) --> V(    4) amplitude =  0.0928
    D(   82) --> V(   10) amplitude =  0.2032

 Excited state  10: excitation energy (eV) =       4.3068
 Total energy for state  10:                 -1143.73421000 au
    Multiplicity: Triplet
    Trans. Mom.:  0.0000 X   0.0000 Y   0.0000 Z
    Strength   :     0.0000000000
    D(   75) --> V(    1) amplitude =  0.1123
    D(   77) --> V(    1) amplitude =  0.0829
    D(   78) --> V(    2) amplitude =  0.0874
[...]
      XZZZ      26.9252   YZZZ      30.8547   ZZZZ    -650.7178
    5th-Order Moments (Debye-Ang^4)
       500    9601.0652    410  -12570.6739    320    -790.3556
       230  -12215.1227    140   -6593.9805    050  -60197.1634
       401   -1832.6691    311    -470.1149    221      87.1438
       131    -503.5586    041   -2002.8154    302    2943.8967
       212   -2445.4930    122   -1794.5078    032   -8542.7035
       203   -1698.4106    113    -875.6765    023     778.9614
       104     -73.4214    014   -1805.9618    005    -544.2317
 -----------------------------------------------------------------
 -----------------------------------------------------------------
                 RPA Excited-State Multipoles, State    4   
                  LMN = < X^L Y^M Z^N >
 -----------------------------------------------------------------
    Charge (ESU x 10^10)
                 4.8032
    Dipole Moment (Debye)
         X      -5.0085      Y      13.8534      Z      -0.1362
       Tot      14.7316
    Quadrupole Moments (Debye-Ang)
        XX     -61.0057     XY      27.2281     YY     -17.8171
        XZ      -0.6283     YZ     -17.7398     ZZ    -126.8887
    Octopole Moments (Debye-Ang^2)
       XXX     -60.3866    XXY    -343.6888    XYY     160.0347
       YYY    -340.7414    XXZ      -7.0233    XYZ      25.1494
       YYZ    -136.1861    XZZ     100.2591    YZZ    -309.4966
       ZZZ    -154.7357
    Hexadecapole Moments (Debye-Ang^3)
      XXXX   -3982.2198   XXXY    -204.7129   XXYY   -2317.1728
      XYYY    -367.9948   YYYY   -5481.2821   XXXZ    -116.4046
      XXYZ      19.8499   XYYZ      66.0684   YYYZ    -617.8177
      XXZZ   -1263.2558   XYZZ    -295.2504   YYZZ   -1570.9722
      XZZZ      39.4065   YZZZ      35.3636   ZZZZ    -643.3531
    5th-Order Moments (Debye-Ang^4)
       500   12650.3657    410  -13113.0065    320    -483.4084
       230  -12732.8046    140   -7276.0775    050  -55961.1336
       401   -1749.0559    311    -284.6861    221     220.4998
       131    -460.1529    041   -2737.7177    302    3075.7674
       212   -2381.3552    122   -1686.6958    032   -8263.4841
       203   -1677.5139    113    -837.9136    023     782.6795
       104     -46.3543    014   -1765.4798    005    -536.6823
 -----------------------------------------------------------------
 -----------------------------------------------------------------
                 RPA Excited-State Multipoles, State    5   
                  LMN = < X^L Y^M Z^N >
 -----------------------------------------------------------------
    Charge (ESU x 10^10)
                 4.8032
    Dipole Moment (Debye)
         X     -16.8758      Y       5.3749      Z       0.4420
       Tot      17.7166
    Quadrupole Moments (Debye-Ang)
        XX     -33.5643     XY      13.3167     YY     -58.2295
        XZ      -8.3453     YZ     -17.9074     ZZ    -128.2420
    Octopole Moments (Debye-Ang^2)
       XXX    -252.8332    XXY    -358.5259    XYY     118.2627
       YYY    -544.2371    XXZ      -1.0207    XYZ      12.7245
       YYZ    -128.6327    XZZ      86.1798    YZZ    -322.2603
       ZZZ    -154.8523
    Hexadecapole Moments (Debye-Ang^3)
      XXXX   -3290.9913   XXXY    -312.0599   XXYY   -2318.4198
      XYYY    -437.1284   YYYY   -6495.9235   XXXZ    -243.5853
      XXYZ     -22.4050   XYYZ      26.6826   YYYZ    -544.4415
      XXZZ   -1251.6515   XYZZ    -323.2433   YYZZ   -1628.6133
      XZZZ      20.5544   YZZZ      30.1326   ZZZZ    -649.8512
    5th-Order Moments (Debye-Ang^4)
       500    8322.1739    410  -13235.3860    320    -777.1684
       230  -12599.5540    140   -7227.0348    050  -61343.5153
       401   -1525.2044    311    -454.2638    221      86.0676
       131    -530.6201    041   -2128.2122    302    2863.2100
       212   -2452.6400    122   -1797.7910    032   -8546.5620
       203   -1672.3215    113    -876.2483    023     777.2102
       104     -84.8499    014   -1806.2939    005    -542.0267
 -----------------------------------------------------------------
 -----------------------------------------------------------------
                 RPA Excited-State Multipoles, State    6   
                  LMN = < X^L Y^M Z^N >
 -----------------------------------------------------------------
    Charge (ESU x 10^10)
                 4.8032
    Dipole Moment (Debye)
         X      -6.2835      Y      13.1962      Z       0.1947
       Tot      14.6171
    Quadrupole Moments (Debye-Ang)
        XX     -47.9399     XY      30.2645     YY     -23.4573
        XZ      -0.4879     YZ     -14.6665     ZZ    -127.5850
    Octopole Moments (Debye-Ang^2)
       XXX     -77.6778    XXY    -316.8485    XYY     177.5315
       YYY    -390.1787    XXZ       1.2075    XYZ      30.8966
       YYZ    -115.7257    XZZ      99.2945    YZZ    -311.9137
       ZZZ    -154.7614
    Hexadecapole Moments (Debye-Ang^3)
      XXXX   -3769.5719   XXXY    -120.4312   XXYY   -2171.1317
      XYYY    -248.1949   YYYY   -5838.0815   XXXZ    -122.8041
      XXYZ      37.3961   XYYZ      95.0940   YYYZ    -495.2038
      XXZZ   -1250.5575   XYZZ    -292.9449   YYZZ   -1584.3425
      XZZZ      40.0948   YZZZ      40.7791   ZZZZ    -647.1759
    5th-Order Moments (Debye-Ang^4)
       500   12396.7217    410  -12769.5863    320     -90.9513
       230  -12044.1887    140   -6620.9028    050  -58480.3964
       401   -1593.7506    311    -217.9173    221     320.6178
       131    -282.4836    041   -1980.6645    302    3064.0936
       212   -2357.2071    122   -1677.8655    032   -8351.5711
       203   -1659.6155    113    -826.8023    023     819.9198
       104     -46.8092    014   -1774.6552    005    -539.8799
 -----------------------------------------------------------------
 -----------------------------------------------------------------
                 RPA Excited-State Multipoles, State    7   
                  LMN = < X^L Y^M Z^N >
 -----------------------------------------------------------------
    Charge (ESU x 10^10)
                 4.8032
    Dipole Moment (Debye)
         X     -12.5261      Y      11.1227      Z      -0.6596
       Tot      16.7647
    Quadrupole Moments (Debye-Ang)
        XX     -45.4964     XY      18.8216     YY     -25.0926
        XZ      -6.6412     YZ     -20.8864     ZZ    -128.3301
    Octopole Moments (Debye-Ang^2)
       XXX    -181.0112    XXY    -352.1840    XYY     140.8728
       YYY    -357.4374    XXZ      -8.3713    XYZ      12.1742
       YYZ    -146.0233    XZZ      90.1106    YZZ    -316.7041
       ZZZ    -157.4351
    Hexadecapole Moments (Debye-Ang^3)
      XXXX   -3717.3958   XXXY    -314.7991   XXYY   -2283.1029
      XYYY    -308.7464   YYYY   -5401.5905   XXXZ    -216.9361
      XXYZ     -31.1348   XYYZ      11.0108   YYYZ    -658.0777
      XXZZ   -1262.5752   XYZZ    -318.4850   YYZZ   -1596.8312
      XZZZ      25.0840   YZZZ      24.3737   ZZZZ    -650.1936
    5th-Order Moments (Debye-Ang^4)
       500   10586.8002    410  -13415.7221    320    -843.6305
       230  -12443.8603    140   -6478.5177    050  -54751.0997
       401   -1712.8480    311    -473.2017    221      52.5748
       131    -633.3438    041   -2857.2626    302    2913.8146
       212   -2451.8661    122   -1781.6364    032   -8366.0576
       203   -1690.7504    113    -876.2542    023     740.5124
       104     -74.5455    014   -1789.6193    005    -552.3498
 -----------------------------------------------------------------
 -----------------------------------------------------------------
                 RPA Excited-State Multipoles, State    8   
                  LMN = < X^L Y^M Z^N >
 -----------------------------------------------------------------
    Charge (ESU x 10^10)
                 4.8032
    Dipole Moment (Debye)
         X     -11.0252      Y       7.1098      Z       0.7255
       Tot      13.1389
    Quadrupole Moments (Debye-Ang)
        XX     -57.2767     XY      15.8935     YY     -51.5308
        XZ      -5.5588     YZ     -17.1828     ZZ    -127.9586
    Octopole Moments (Debye-Ang^2)
       XXX    -134.9376    XXY    -349.3056    XYY     132.6075
       YYY    -514.4993    XXZ     -15.7134    XYZ      13.7642
       YYZ    -125.2248    XZZ      90.8927    YZZ    -321.5241
       ZZZ    -153.9501
    Hexadecapole Moments (Debye-Ang^3)
      XXXX   -3849.0029   XXXY    -344.1095   XXYY   -2299.1560
      XYYY    -378.7477   YYYY   -6368.6173   XXXZ    -174.7807
      XXYZ     -26.4154   XYYZ      30.3692   YYYZ    -525.5265
      XXZZ   -1276.1360   XYZZ    -322.7849   YYZZ   -1627.3420
      XZZZ      26.1777   YZZZ      31.4636   ZZZZ    -648.3128
    5th-Order Moments (Debye-Ang^4)
       500   10939.5845    410  -12992.1133    320    -714.4829
       230  -12425.4368    140   -6896.8719    050  -60775.5052
       401   -1908.8153    311    -469.8605    221      67.9874
       131    -518.8969    041   -2017.2333    302    2977.8270
       212   -2454.7985    122   -1794.8508    032   -8545.7717
       203   -1705.6076    113    -876.1386    023     782.3122
       104     -74.1350    014   -1805.3363    005    -537.6148
 -----------------------------------------------------------------
 -----------------------------------------------------------------
                 RPA Excited-State Multipoles, State    9   
                  LMN = < X^L Y^M Z^N >
 -----------------------------------------------------------------
    Charge (ESU x 10^10)
                 4.8032
    Dipole Moment (Debye)
         X     -14.1922      Y       3.6224      Z       1.1044
       Tot      14.6888
    Quadrupole Moments (Debye-Ang)
        XX     -52.4089     XY       5.7230     YY     -70.2859
        XZ      -6.2835     YZ     -17.9192     ZZ    -127.4376
    Octopole Moments (Debye-Ang^2)
       XXX    -188.9375    XXY    -353.9257    XYY      93.8016
       YYY    -606.6940    XXZ     -15.4215    XYZ      10.3084
       YYZ    -129.6375    XZZ      88.5027    YZZ    -323.9667
       ZZZ    -152.6051
    Hexadecapole Moments (Debye-Ang^3)
      XXXX   -3626.9829   XXXY    -473.0972   XXYY   -2382.8047
      XYYY    -587.0010   YYYY   -6882.8335   XXXZ    -182.5326
      XXYZ     -27.3259   XYYZ      22.5833   YYYZ    -535.4579
      XXZZ   -1272.7454   XYZZ    -329.9942   YYZZ   -1641.9025
      XZZZ      23.4635   YZZZ      30.2995   ZZZZ    -645.9435
    5th-Order Moments (Debye-Ang^4)
       500    9228.4217    410  -12785.8495    320   -1135.3115
       230  -12933.8564    140   -8012.5142    050  -63700.1056
       401   -1900.0199    311    -504.3408    221      39.0623
       131    -567.1084    041   -2048.2831    302    2943.6021
       212   -2459.2960    122   -1817.7630    032   -8612.1807
       203   -1701.7195    113    -883.1137    023     774.9540
       104     -81.2166    014   -1810.7026    005    -531.1653
 -----------------------------------------------------------------
 -----------------------------------------------------------------
                 RPA Excited-State Multipoles, State   10   
                  LMN = < X^L Y^M Z^N >
 -----------------------------------------------------------------
    Charge (ESU x 10^10)
                 4.8032
    Dipole Moment (Debye)
         X     -13.1565      Y       5.8569      Z       0.7572
       Tot      14.4212
    Quadrupole Moments (Debye-Ang)
        XX     -54.9869     XY      11.4204     YY     -56.8469
        XZ      -6.5452     YZ     -17.9099     ZZ    -127.8767
    Octopole Moments (Debye-Ang^2)
       XXX    -153.5609    XXY    -357.6135    XYY     104.8470
       YYY    -553.6347    XXZ     -13.4267    XYZ      13.8916
       YYZ    -126.1150    XZZ      89.3192    YZZ    -322.4391
       ZZZ    -153.9360
    Hexadecapole Moments (Debye-Ang^3)
      XXXX   -3851.6627   XXXY    -380.0086   XXYY   -2335.9656
      XYYY    -503.5632   YYYY   -6597.4200   XXXZ    -186.5351
      XXYZ     -30.5389   XYYZ      22.8034   YYYZ    -534.3450
      XXZZ   -1274.1471   XYZZ    -323.7224   YYZZ   -1628.9931
      XZZZ      24.1977   YZZZ      29.8205   ZZZZ    -648.3271
    5th-Order Moments (Debye-Ang^4)
       500   11067.0765    410  -13078.7253    320    -940.8189
       230  -12727.2382    140   -7589.8486    050  -62159.7169
       401   -1878.1523    311    -468.3463    221      69.4964
       131    -544.5207    041   -2057.6313    302    2968.0919
       212   -2461.9960    122   -1809.5895    032   -8564.9604
       203   -1702.0362    113    -875.0729    023     781.5184
       104     -77.6423    014   -1808.4882    005    -538.3265
 -----------------------------------------------------------------
 -----------------------------------------------------------------
                 RPA Excited-State Multipoles, State   11   
                  LMN = < X^L Y^M Z^N >
 -----------------------------------------------------------------
    Charge (ESU x 10^10)
                 4.8032
    Dipole Moment (Debye)
         X     -13.3389      Y       8.3923      Z       0.1852
       Tot      15.7605
    Quadrupole Moments (Debye-Ang)
        XX     -33.9367     XY      20.9113     YY     -40.9920
        XZ      -5.9895     YZ     -17.9387     ZZ    -128.3025
    Octopole Moments (Debye-Ang^2)
       XXX    -224.5258    XXY    -330.5660    XYY     158.1956
       YYY    -441.5776    XXZ      -3.1330    XYZ      16.7841
       YYZ    -130.3644    XZZ      90.3625    YZZ    -319.1237
       ZZZ    -155.7577
    Hexadecapole Moments (Debye-Ang^3)
      XXXX   -3236.2507   XXXY    -287.7188   XXYY   -2201.5553
      XYYY    -231.6522   YYYY   -5891.8615   XXXZ    -206.9824
      XXYZ     -11.3338   XYYZ      42.3091   YYYZ    -560.7590
      XXZZ   -1254.2061   XYZZ    -315.4008   YYZZ   -1611.7401
      XZZZ      26.6019   YZZZ      30.0032   ZZZZ    -650.3740
    5th-Order Moments (Debye-Ang^4)
       500    8264.2818    410  -12622.1722    320    -472.9697
       230  -11984.7376    140   -6082.9680    050  -57696.9755
       401   -1586.8058    311    -400.3521    221     132.7137
       131    -472.9298    041   -2269.4360    302    2919.8364
       212   -2426.9120    122   -1761.1331    032   -8447.1741
       203   -1677.1061    113    -866.2329    023     771.3114
       104     -72.4185    014   -1796.3178    005    -547.1952
 -----------------------------------------------------------------
 -----------------------------------------------------------------
                 RPA Excited-State Multipoles, State   12   
                  LMN = < X^L Y^M Z^N >
 -----------------------------------------------------------------
    Charge (ESU x 10^10)
                 4.8032
    Dipole Moment (Debye)
         X     -10.4030      Y       7.0988      Z       0.7552
       Tot      12.6169
    Quadrupole Moments (Debye-Ang)
        XX     -58.3735     XY      16.9213     YY     -49.1686
        XZ      -5.2401     YZ     -17.8494     ZZ    -128.1402
    Octopole Moments (Debye-Ang^2)
       XXX    -123.9345    XXY    -344.6235    XYY     136.3525
       YYY    -499.3510    XXZ     -16.5980    XYZ      14.7291
       YYZ    -126.8306    XZZ      91.9107    YZZ    -322.0333
       ZZZ    -154.5037
    Hexadecapole Moments (Debye-Ang^3)
      XXXX   -3894.1698   XXXY    -351.4450   XXYY   -2274.0488
      XYYY    -344.8496   YYYY   -6261.7650   XXXZ    -164.7902
      XXYZ     -28.0231   XYYZ      29.8084   YYYZ    -535.9923
      XXZZ   -1280.4340   XYZZ    -321.3694   YYZZ   -1626.5613
      XZZZ      27.2636   YZZZ      29.6899   ZZZZ    -650.3910
    5th-Order Moments (Debye-Ang^4)
       500   11270.6005    410  -12837.4824    320    -700.7610
       230  -12328.3128    140   -6707.0908    050  -60099.3824
       401   -1955.3068    311    -454.1943    221      77.1938
       131    -514.4073    041   -2073.3221    302    3008.0252
       212   -2456.1944    122   -1792.9610    032   -8537.2672
       203   -1710.9608    113    -874.7305    023     777.4357
       104     -70.7465    014   -1808.2117    005    -543.6238
 -----------------------------------------------------------------
 -----------------------------------------------------------------
                 RPA Excited-State Multipoles, State   13   
                  LMN = < X^L Y^M Z^N >
 -----------------------------------------------------------------
    Charge (ESU x 10^10)
                 4.8032
    Dipole Moment (Debye)
         X     -11.3408      Y       6.2807      Z       0.8515
       Tot      12.9918
    Quadrupole Moments (Debye-Ang)
        XX     -50.9062     XY      13.3909     YY     -55.8896
        XZ      -4.5316     YZ     -17.3966     ZZ    -128.0323
    Octopole Moments (Debye-Ang^2)
       XXX    -164.9307    XXY    -335.3006    XYY     132.8920
       YYY    -526.2695    XXZ     -14.5548    XYZ      13.3324
       YYZ    -127.0338    XZZ      92.0091    YZZ    -322.4427
       ZZZ    -154.1762
    Hexadecapole Moments (Debye-Ang^3)
      XXXX   -3615.3351   XXXY    -384.4660   XXYY   -2276.4123
      XYYY    -377.6919   YYYY   -6421.0756   XXXZ    -169.1648
      XXYZ     -17.5133   XYYZ      36.0303   YYYZ    -526.0776
      XXZZ   -1273.9969   XYZZ    -323.8933   YYZZ   -1632.4051
      XZZZ      28.1503   YZZZ      30.6176   ZZZZ    -650.3736
    5th-Order Moments (Debye-Ang^4)
       500    9679.3622    410  -12612.2353    320    -710.6239
       230  -12325.1233    140   -6838.3269    050  -60964.9517
       401   -1864.5612    311    -459.6896    221      84.5160
       131    -503.3579    041   -2023.5086    302    2981.3741
       212   -2443.8509    122   -1788.6324    032   -8554.7970
       203   -1703.2101    113    -878.0533    023     776.3684
       104     -70.4326    014   -1809.9277    005    -543.3042
 -----------------------------------------------------------------
 -----------------------------------------------------------------
                 RPA Excited-State Multipoles, State   14   
                  LMN = < X^L Y^M Z^N >
 -----------------------------------------------------------------
    Charge (ESU x 10^10)
                 4.8032
    Dipole Moment (Debye)
         X     -10.8028      Y       7.8045      Z       0.7342
       Tot      13.3472
    Quadrupole Moments (Debye-Ang)
        XX     -50.3515     XY      19.4483     YY     -48.2819
        XZ      -4.5982     YZ     -16.1998     ZZ    -128.3453
    Octopole Moments (Debye-Ang^2)
       XXX    -133.8551    XXY    -332.4919    XYY     149.0342
       YYY    -499.8963    XXZ      -8.7735    XYZ      18.9226
       YYZ    -120.3222    XZZ      92.0564    YZZ    -321.0513
       ZZZ    -154.9705
    Hexadecapole Moments (Debye-Ang^3)
      XXXX   -3689.5847   XXXY    -261.0337   XXYY   -2226.0846
      XYYY    -310.1728   YYYY   -6319.0053   XXXZ    -161.5735
      XXYZ      -2.3243   XYYZ      54.7616   YYYZ    -500.0737
      XXZZ   -1267.3723   XYZZ    -315.9895   YYZZ   -1623.7391
      XZZZ      27.2851   YZZZ      31.9118   ZZZZ    -653.6556
    5th-Order Moments (Debye-Ang^4)
       500   10787.9870    410  -12731.0025    320    -372.8826
       230  -12086.6043    140   -6569.4716    050  -60596.0202
       401   -1758.8109    311    -377.1153    221     162.2445
       131    -419.9523    041   -1907.0267    302    2997.1954
       212   -2424.6106    122   -1763.7972    032   -8525.5123
       203   -1692.8522    113    -866.9652    023     789.6898
       104     -75.8704    014   -1814.2873    005    -553.1561
 -----------------------------------------------------------------
 Total job time:  5394.32s(wall), 71003.05s(cpu) 
 Fri Jan 31 02:18:43 2025

        *************************************************************
        *                                                           *
        *  Thank you very much for using Q-Chem.  Have a nice day.  *
        *                                                           *
        *************************************************************


