
Running Job 1 of 1 Petunidin_Q4_tddft_full.in
qchem Petunidin_Q4_tddft_full.in_1913023.0 /data/brussel/103/vsc10365/activedata/TDDFTAnthocyanidines/qchem1913023/ 1
/apps/brussel/RL8/skylake/software/Q-Chem/6.2.0/exe/qcprog.exe_s Petunidin_Q4_tddft_full.in_1913023.0 /data/brussel/103/vsc10365/activedata/TDDFTAnthocyanidines/qchem1913023/
                  Welcome to Q-Chem
     A Quantum Leap Into The Future Of Chemistry


 Q-Chem 6.2, Q-Chem, Inc., Pleasanton, CA (2024)

 License issued to: SRG Prof. Dr. Frank De Proft, Vrije Universiteit Brussel

 E. Epifanovsky,  A. T. B. Gilbert,  Xintian Feng,  Joonho Lee,  Yuezhi Mao,  
 N. Mardirossian,  P. Pokhilko,  A. White,  M. Wormit,  M. P. Coons,  
 A. L. Dempwolff,  Zhengting Gan,  D. Hait,  P. R. Horn,  L. D. Jacobson,  
 I. Kaliman,  J. Kussmann,  A. W. Lange,  Ka Un Lao,  D. S. Levine,  Jie Liu,  
 S. C. McKenzie,  A. F. Morrison,  K. D. Nanda,  F. Plasser,  D. R. Rehn,  
 M. L. Vidal,  Zhi-Qiang You,  Ying Zhu,  Huseyin Aksu,  B. Alam,  
 B. Albrecht,  A. Aldossary,  E. Alguire,  J. H. Andersen,  
 J. E. Arias-Martinez,  V. Athavale,  D. Barton,  K. Begam,  A. Behn,  
 N. Bellonzi,  Y. A. Bernard,  E. J. Berquist,  H. Burton,  A. Carreras,  
 K. Carter-Fenk,  Mathew Chow,  Romit Chakraborty,  Chandrima Chakravarty,  
 Junhan Chen,  A. D. Chien,  K. D. Closser,  V. Cofer-Shabica,  L. Cunha,  
 S. Dasgupta,  Jia Deng,  Joseph Dickinson,  M. de Wergifosse,  
 M. Diedenhofen,  Hainam Do,  Wenjie Dou,  S. Ehlert,  Po-Tung Fang,  
 S. Fatehi,  Qingguo Feng,  Jonathan Fetherolf,  T. Friedhoff,  
 Thomas Froitzheim,  Sarai Folkestad,  B. Ganoe,  J. Gayvert,  Qinghui Ge,  
 G. Gidofalvi,  M. Gimferrer,  M. Goldey,  Montgomery Gray,  J. Gomes,  
 C. Gonzalez-Espinoza,  S. Gulania,  A. Gunina,  J. A. Gyamfi,  
 M. W. D. Hanson-Heine,  P. H. P. Harbach,  A. W. Hauser,  M. F. Herbst,  
 M. Hernandez Vera,  M. Hodecker,  Z. C. Holden,  S. Houck,  Xunkun Huang,  
 Kerwin Hui,  B. C. Huynh,  K. Ikeda,  M. Ivanov,  Nayanthara K. Jayadev,  
 Hyunjun Ji,  Zuxin Jin,  Hanjie Jiang,  Subrata Jana,  B. Kaduk,  
 S. Kaehler,  R. Kang,  K. Khistyaev,  Jaehoon Kim,  Yongbin Kim,  
 P. Klunzinger,  Z. Koczor-Benda,  Joong Hoon Koh,  D. Kosenkov,  
 Saikiran Kotaru,  L. Koulias,  T. Kowalczyk,  C. M. Krauter,  K. Kue,  
 A. Kunitsa,  T. Kus,  A. Landau,  K. V. Lawler,  D. Lefrancois,  S. Lehtola,  
 Rain Li,  Shaozhi Li,  Tao E. Li,  Yi-Pei Li,  Jiashu Liang,  M. Liebenthal,  
 Hung-Hsuan Lin,  You-Sheng Lin,  Fenglai Liu,  Kuan-Yu Liu,  Xiao Liu,  
 M. Loipersberger,  A. Luenser,  C. Malbon,  Aniket Mandal,  Manisha,  
 A. Manjanath,  P. Manohar,  E. Mansoor,  S. F. Manzer,  Shan-Ping Mao,  
 A. V. Marenich,  T. Markovich,  S. Mason,  F. Matz,  S. A. Maurer,  
 Samuel May,  Alexandra McIsaac,  P. F. McLaughlin,  M. F. S. J. Menger,  
 J.-M. Mewes,  S. A. Mewes,  P. Morgante,  Mohammad Mostafanejad,  
 Madhubani Mukherjee,  J. W. Mullinax,  Quyen Nguyen,  Avik Kumar Ojha,  
 K. J. Oosterbaan,  Eno Paenurk,  Xiaoliang Pan,  G. Paran,  V. Parravicini,  
 Alexander C. Paul,  Suranjan K. Paul,  F. Pavosevic,  Zheng Pei,  S. Prager,  
 E. I. Proynov,  E. Ramos,  B. Rana,  A. E. Rask,  A. Rettig,  R. M. Richard,  
 F. Rob,  E. Rossomme,  T. Scheele,  M. Scheurer,  M. Schneider,  
 P. E. Schneider,  Tim K. Schramm,  N. Sergueev,  S. M. Sharada,  
 Hengyuan Shen,  W. Skomorowski,  D. W. Small,  C. J. Stein,  
 Alistair J. Sterling,  Yingli Su,  Yu-Chuan Su,  E. J. Sundstrom,  
 J. Talbot,  Zhen Tao,  J. Thirman,  Hung-Yi Tsai,  T. Tsuchimochi,  
 N. M. Tubman,  C. Utku,  S. P. Veccham,  O. Vydrov,  Rahel Weiss,  
 J. Wenzel,  Jonathan Wong,  J. Witte,  H. Wu,  Yanze Wu,  A. Yamada,  
 Chou-Hsun Yang,  Kun Yao,  S. Yeganeh,  S. R. Yost,  Qi Yu,  A. Zech,  
 F. Zeller,  Chongxiao Zhao,  Igor Ying Zhang,  Xing Zhang,  Yu Zhang,  
 D. Zuev,  A. Aspuru-Guzik,  A. T. Bell,  N. A. Besley,  K. B. Bravaya,  
 B. R. Brooks,  D. Casanova,  Jeng-Da Chai,  Hsing-Ta Chen,  S. Coriani,  
 C. J. Cramer,  A. E. DePrince, III,  R. A. DiStasio Jr.,  A. Dreuw,  
 B. D. Dunietz,  T. R. Furlani,  W. A. Goddard III,  S. Grimme,  
 S. Hammes-Schiffer,  T. Head-Gordon,  W. J. Hehre,  Chao-Ping Hsu,  
 T.-C. Jagau,  Yousung Jung,  A. Klamt,  Jing Kong,  D. S. Lambrecht,  
 Xiangyuan Li,  WanZhen Liang,  N. J. Mayhall,  C. W. McCurdy,  J. B. Neaton,  
 T. Neudecker,  C. Ochsenfeld,  J. A. Parkhill,  R. Peverati,  
 V. A. Rassolov,  Haisheng Ren,  Yihan Shao,  L. V. Slipchenko,  
 R. P. Steele,  J. E. Subotnik,  A. J. W. Thom,  A. Tkatchenko,  
 D. G. Truhlar,  T. Van Voorhis,  Fan Wang,  T. A. Wesolowski,  K. B. Whaley,  
 H. L. Woodcock III,  P. M. Zimmerman,  S. Faraji,  P. M. W. Gill,  
 M. Head-Gordon,  J. M. Herbert,  A. I. Krylov

 Contributors to earlier versions of Q-Chem not listed above: 
 R. D. Adamson,  B. Austin,  R. Baer,  J. Baker,  G. J. O. Beran,  
 K. Brandhorst,  S. T. Brown,  E. F. C. Byrd,  Arup K. Chakraborty,  
 G. K. L. Chan,  Chun-Min Chang,  Yunqing Chen,  C.-L. Cheng,  
 Siu Hung Chien,  D. M. Chipman,  D. L. Crittenden,  H. Dachsel,  
 R. J. Doerksen,  A. D. Dutoi,  R. G. Edgar,  J. Fosso-Tande,  
 L. Fusti-Molnar,  D. Ghosh,  A. Ghysels,  A. Golubeva-Zadorozhnaya,  
 J. Gonthier,  M. S. Gordon,  S. R. Gwaltney,  G. Hawkins,  J. E. Herr,  
 A. Heyden,  S. Hirata,  E. G. Hohenstein,  G. Kedziora,  F. J. Keil,  
 C. Kelley,  Jihan Kim,  R. A. King,  R. Z. Khaliullin,  P. P. Korambath,  
 W. Kurlancheek,  A. Laurent,  A. M. Lee,  M. S. Lee,  S. V. Levchenko,  
 Ching Yeh Lin,  D. Liotard,  E. Livshits,  R. C. Lochan,  I. Lotan,  
 L. A. Martinez-Martinez,  P. E. Maslen,  N. Nair,  D. P. O'Neill,  
 D. Neuhauser,  E. Neuscamman,  C. M. Oana,  R. Olivares-Amaya,  R. Olson,  
 T. M. Perrine,  B. Peters,  P. A. Pieniazek,  A. Prociuk,  Y. M. Rhee,  
 J. Ritchie,  M. A. Rohrdanz,  E. Rosta,  N. J. Russ,  H. F. Schaefer III,  
 M. W. Schmidt,  N. E. Schultz,  S. Sharma,  N. Shenvi,  C. D. Sherrill,  
 A. C. Simmonett,  A. Sodt,  T. Stein,  D. Stuck,  K. S. Thanthiriwatte,  
 V. Vanovschi,  L. Vogt,  Tao Wang,  A. Warshel,  M. A. Watson,  
 C. F. Williams,  Q. Wu,  X. Xu,  Jun Yang,  W. Zhang,  Yan Zhao

   Please cite Q-Chem as follows:
  "Software for the frontiers of quantum chemistry:
   An overview of developments in the Q-Chem 5 package"
   J. Chem. Phys. 155, 084801 (2021)
   https://doi.org/10.1063/5.0055522 (open access)

 Q-Chem 6.2.0 for Intel X86 EM64T Linux

 Parts of Q-Chem use Armadillo 9.900.5 (Nocturnal Misbehaviour).
 http://arma.sourceforge.net/

 Q-Chem begins on Fri Jan 31 01:00:22 2025  

 Host: 
0

     Scratch files written to /data/brussel/103/vsc10365/activedata/TDDFTAnthocyanidines/qchem1913023//
 May224 |scratch|qcdevops|jenkins|workspace|build_RNUM -1
 Processing $rem in /apps/brussel/RL8/skylake/software/Q-Chem/6.2.0/config/preferences:
 Processing $rem in /user/brussel/103/vsc10365/.qchemrc:
 Symmetry turned off for PCM/SM12/SMD calculation

 Checking the input file for inconsistencies... 	...done.

--------------------------------------------------------------
User input:
--------------------------------------------------------------
$comment
TDDFT calculation of petunidin Q4 structure
nprocs=16
mem=64gb
$end

$molecule
0 1
C   -0.6855881   -1.6742906   -4.1357058
C   -0.4745577   -0.4442771   -4.8702545
C   -0.2069764    0.7330647   -4.2444989
C   -0.1224796    0.7976752   -2.8129809
C   -0.3403425   -0.4208760   -2.1023080
C   -0.6081642   -1.6145519   -2.7089518
C    0.1566668    1.9339279   -2.0908219
C    0.2240164    1.9139881   -0.6910525
C   -0.0085241    0.7289534   -0.0121758
O   -0.2811430   -0.3805923   -0.7442842
C    0.0053993    0.4682074    1.4201986
C   -0.0191298   -0.8685820    1.8684738
C   -0.0187587   -1.1455046    3.2235219
C    0.0033594   -0.1013380    4.1593166
C    0.0233653    1.2170982    3.7161611
C    0.0259464    1.5070569    2.3617031
O   -0.9293964   -2.7576216   -4.7512930
H   -0.5338309   -0.4826376   -5.9516520
O   -0.0018362    1.9095787   -4.9003369
H   -0.7634659   -2.5103142   -2.1234832
H    0.3363944    2.8719384   -2.6015620
O    0.5290835    3.0500962    0.0039922
H   -0.0315768   -1.6761058    1.1559919
O   -0.0369458   -2.3920318    3.7776366
O    0.0040246   -0.3304821    5.5034188
O    0.0379702    2.2547266    4.6155962
H    0.0281335    2.5403576    2.0602519
C   -0.0722815   -3.5254546    2.9029677
H    0.0342060    1.9005565    5.5170822
H   -0.0879331   -4.3977939    3.5510516
H    0.8157305   -3.5539570    2.2691071
H   -0.9717748   -3.5100313    2.2849760
H   -0.0111516   -1.2862847    5.6676960
H    0.6873666    3.7772329   -0.6153767
H   -0.0744978    1.7712162   -5.8560669
$end

$rem
BASIS  =  def2-ma-TZVP
MEM_STATIC  =  2000
MEM_TOTAL  =  64000
METHOD  =  CAM-B3LYP
SOLVENT_METHOD = pcm
SYMMETRY_IGNORE  =  1
CIS_N_ROOTS = 7
CIS_SINGLETS = true
CIS_TRIPLETS = true
CISTR_PRINT = true
RPA = true
PRINT_ORBITALS = true
SCF_PRINT = 1
SCF_FINAL_PRINT = 2
PRINT_GENERAL_BASIS = true
CISTR_PRINT = true
PRINT_RADII_GYRE = true
MULTIPOLE_ORDER = 5
CIS_AMPL_PRINT = 5
CIS_AMPL_ANAL = true
STATE_ANALYSIS = true
$end

$pcm
Theory   CPCM
Method   SWIG
Solver   Inversion
Radii    Bondi
$end

$solvent
Dielectric         78.39
OpticalDielectric  1.777849
$end


--------------------------------------------------------------
 ----------------------------------------------------------------
             Standard Nuclear Orientation (Angstroms)
    I     Atom           X                Y                Z
 ----------------------------------------------------------------
    1      C      -0.6855881000    -1.6742906000    -4.1357058000
    2      C      -0.4745577000    -0.4442771000    -4.8702545000
    3      C      -0.2069764000     0.7330647000    -4.2444989000
    4      C      -0.1224796000     0.7976752000    -2.8129809000
    5      C      -0.3403425000    -0.4208760000    -2.1023080000
    6      C      -0.6081642000    -1.6145519000    -2.7089518000
    7      C       0.1566668000     1.9339279000    -2.0908219000
    8      C       0.2240164000     1.9139881000    -0.6910525000
    9      C      -0.0085241000     0.7289534000    -0.0121758000
   10      O      -0.2811430000    -0.3805923000    -0.7442842000
   11      C       0.0053993000     0.4682074000     1.4201986000
   12      C      -0.0191298000    -0.8685820000     1.8684738000
   13      C      -0.0187587000    -1.1455046000     3.2235219000
   14      C       0.0033594000    -0.1013380000     4.1593166000
   15      C       0.0233653000     1.2170982000     3.7161611000
   16      C       0.0259464000     1.5070569000     2.3617031000
   17      O      -0.9293964000    -2.7576216000    -4.7512930000
   18      H      -0.5338309000    -0.4826376000    -5.9516520000
   19      O      -0.0018362000     1.9095787000    -4.9003369000
   20      H      -0.7634659000    -2.5103142000    -2.1234832000
   21      H       0.3363944000     2.8719384000    -2.6015620000
   22      O       0.5290835000     3.0500962000     0.0039922000
   23      H      -0.0315768000    -1.6761058000     1.1559919000
   24      O      -0.0369458000    -2.3920318000     3.7776366000
   25      O       0.0040246000    -0.3304821000     5.5034188000
   26      O       0.0379702000     2.2547266000     4.6155962000
   27      H       0.0281335000     2.5403576000     2.0602519000
   28      C      -0.0722815000    -3.5254546000     2.9029677000
   29      H       0.0342060000     1.9005565000     5.5170822000
   30      H      -0.0879331000    -4.3977939000     3.5510516000
   31      H       0.8157305000    -3.5539570000     2.2691071000
   32      H      -0.9717748000    -3.5100313000     2.2849760000
   33      H      -0.0111516000    -1.2862847000     5.6676960000
   34      H       0.6873666000     3.7772329000    -0.6153767000
   35      H      -0.0744978000     1.7712162000    -5.8560669000
 ----------------------------------------------------------------
 Nuclear Repulsion Energy =        1845.65696444 hartrees
 There are       82 alpha and       82 beta electrons
 Requested basis set is def2-ma-TZVP
 Basis set in general basis input format:
-----------------------------------------------------------------------
$basis
C    0
S    6    1.000000
   1.35753497E+04    2.22458144E-04 
   2.03523337E+03    1.72327383E-03 
   4.63225624E+02    8.92557153E-03 
   1.31200196E+02    3.57279845E-02 
   4.28530159E+01    1.10762599E-01 
   1.55841858E+01    2.42956276E-01 
S    2    1.000000
   6.20671385E+00    4.14402634E-01 
   2.57648965E+00    2.37449687E-01 
S    1    1.000000
   5.76963394E-01    1.00000000E+00 
S    1    1.000000
   2.29728314E-01    1.00000000E+00 
S    1    1.000000
   9.51644400E-02    1.00000000E+00 
S    1    1.000000
   4.84754014E-02    1.00000000E+00 
P    4    1.000000
   3.46972322E+01    5.33336578E-03 
   7.95826228E+00    3.58641091E-02 
   2.37808269E+00    1.42158733E-01 
   8.14332082E-01    3.42704718E-01 
P    1    1.000000
   2.88875473E-01    4.64458224E-01 
P    1    1.000000
   1.00568237E-01    2.49557899E-01 
D    1    1.000000
   1.09700000E+00    1.00000000E+00 
D    1    1.000000
   3.18000000E-01    1.00000000E+00 
F    1    1.000000
   7.61000000E-01    1.00000000E+00 
****
C    0
S    6    1.000000
   1.35753497E+04    2.22458144E-04 
   2.03523337E+03    1.72327383E-03 
   4.63225624E+02    8.92557153E-03 
   1.31200196E+02    3.57279845E-02 
   4.28530159E+01    1.10762599E-01 
   1.55841858E+01    2.42956276E-01 
S    2    1.000000
   6.20671385E+00    4.14402634E-01 
   2.57648965E+00    2.37449687E-01 
S    1    1.000000
   5.76963394E-01    1.00000000E+00 
S    1    1.000000
   2.29728314E-01    1.00000000E+00 
S    1    1.000000
   9.51644400E-02    1.00000000E+00 
S    1    1.000000
   4.84754014E-02    1.00000000E+00 
P    4    1.000000
   3.46972322E+01    5.33336578E-03 
   7.95826228E+00    3.58641091E-02 
   2.37808269E+00    1.42158733E-01 
   8.14332082E-01    3.42704718E-01 
P    1    1.000000
   2.88875473E-01    4.64458224E-01 
P    1    1.000000
   1.00568237E-01    2.49557899E-01 
D    1    1.000000
   1.09700000E+00    1.00000000E+00 
D    1    1.000000
   3.18000000E-01    1.00000000E+00 
F    1    1.000000
   7.61000000E-01    1.00000000E+00 
****
C    0
S    6    1.000000
   1.35753497E+04    2.22458144E-04 
   2.03523337E+03    1.72327383E-03 
   4.63225624E+02    8.92557153E-03 
   1.31200196E+02    3.57279845E-02 
   4.28530159E+01    1.10762599E-01 
   1.55841858E+01    2.42956276E-01 
S    2    1.000000
   6.20671385E+00    4.14402634E-01 
   2.57648965E+00    2.37449687E-01 
S    1    1.000000
   5.76963394E-01    1.00000000E+00 
S    1    1.000000
   2.29728314E-01    1.00000000E+00 
S    1    1.000000
   9.51644400E-02    1.00000000E+00 
S    1    1.000000
   4.84754014E-02    1.00000000E+00 
P    4    1.000000
   3.46972322E+01    5.33336578E-03 
   7.95826228E+00    3.58641091E-02 
   2.37808269E+00    1.42158733E-01 
   8.14332082E-01    3.42704718E-01 
P    1    1.000000
   2.88875473E-01    4.64458224E-01 
P    1    1.000000
   1.00568237E-01    2.49557899E-01 
D    1    1.000000
   1.09700000E+00    1.00000000E+00 
D    1    1.000000
   3.18000000E-01    1.00000000E+00 
F    1    1.000000
   7.61000000E-01    1.00000000E+00 
****
C    0
S    6    1.000000
   1.35753497E+04    2.22458144E-04 
   2.03523337E+03    1.72327383E-03 
   4.63225624E+02    8.92557153E-03 
   1.31200196E+02    3.57279845E-02 
   4.28530159E+01    1.10762599E-01 
   1.55841858E+01    2.42956276E-01 
S    2    1.000000
   6.20671385E+00    4.14402634E-01 
   2.57648965E+00    2.37449687E-01 
S    1    1.000000
   5.76963394E-01    1.00000000E+00 
S    1    1.000000
   2.29728314E-01    1.00000000E+00 
S    1    1.000000
   9.51644400E-02    1.00000000E+00 
S    1    1.000000
   4.84754014E-02    1.00000000E+00 
P    4    1.000000
   3.46972322E+01    5.33336578E-03 
   7.95826228E+00    3.58641091E-02 
   2.37808269E+00    1.42158733E-01 
   8.14332082E-01    3.42704718E-01 
P    1    1.000000
   2.88875473E-01    4.64458224E-01 
P    1    1.000000
   1.00568237E-01    2.49557899E-01 
D    1    1.000000
   1.09700000E+00    1.00000000E+00 
D    1    1.000000
   3.18000000E-01    1.00000000E+00 
F    1    1.000000
   7.61000000E-01    1.00000000E+00 
****
C    0
S    6    1.000000
   1.35753497E+04    2.22458144E-04 
   2.03523337E+03    1.72327383E-03 
   4.63225624E+02    8.92557153E-03 
   1.31200196E+02    3.57279845E-02 
   4.28530159E+01    1.10762599E-01 
   1.55841858E+01    2.42956276E-01 
S    2    1.000000
   6.20671385E+00    4.14402634E-01 
   2.57648965E+00    2.37449687E-01 
S    1    1.000000
   5.76963394E-01    1.00000000E+00 
S    1    1.000000
   2.29728314E-01    1.00000000E+00 
S    1    1.000000
   9.51644400E-02    1.00000000E+00 
S    1    1.000000
   4.84754014E-02    1.00000000E+00 
P    4    1.000000
   3.46972322E+01    5.33336578E-03 
   7.95826228E+00    3.58641091E-02 
   2.37808269E+00    1.42158733E-01 
   8.14332082E-01    3.42704718E-01 
P    1    1.000000
   2.88875473E-01    4.64458224E-01 
P    1    1.000000
   1.00568237E-01    2.49557899E-01 
D    1    1.000000
   1.09700000E+00    1.00000000E+00 
D    1    1.000000
   3.18000000E-01    1.00000000E+00 
F    1    1.000000
   7.61000000E-01    1.00000000E+00 
****
C    0
S    6    1.000000
   1.35753497E+04    2.22458144E-04 
   2.03523337E+03    1.72327383E-03 
   4.63225624E+02    8.92557153E-03 
   1.31200196E+02    3.57279845E-02 
   4.28530159E+01    1.10762599E-01 
   1.55841858E+01    2.42956276E-01 
S    2    1.000000
   6.20671385E+00    4.14402634E-01 
   2.57648965E+00    2.37449687E-01 
S    1    1.000000
   5.76963394E-01    1.00000000E+00 
S    1    1.000000
   2.29728314E-01    1.00000000E+00 
S    1    1.000000
   9.51644400E-02    1.00000000E+00 
S    1    1.000000
   4.84754014E-02    1.00000000E+00 
P    4    1.000000
   3.46972322E+01    5.33336578E-03 
   7.95826228E+00    3.58641091E-02 
   2.37808269E+00    1.42158733E-01 
   8.14332082E-01    3.42704718E-01 
P    1    1.000000
   2.88875473E-01    4.64458224E-01 
P    1    1.000000
   1.00568237E-01    2.49557899E-01 
D    1    1.000000
   1.09700000E+00    1.00000000E+00 
D    1    1.000000
   3.18000000E-01    1.00000000E+00 
F    1    1.000000
   7.61000000E-01    1.00000000E+00 
****
C    0
S    6    1.000000
   1.35753497E+04    2.22458144E-04 
   2.03523337E+03    1.72327383E-03 
   4.63225624E+02    8.92557153E-03 
   1.31200196E+02    3.57279845E-02 
   4.28530159E+01    1.10762599E-01 
   1.55841858E+01    2.42956276E-01 
S    2    1.000000
   6.20671385E+00    4.14402634E-01 
   2.57648965E+00    2.37449687E-01 
S    1    1.000000
   5.76963394E-01    1.00000000E+00 
S    1    1.000000
   2.29728314E-01    1.00000000E+00 
S    1    1.000000
   9.51644400E-02    1.00000000E+00 
S    1    1.000000
   4.84754014E-02    1.00000000E+00 
P    4    1.000000
   3.46972322E+01    5.33336578E-03 
   7.95826228E+00    3.58641091E-02 
   2.37808269E+00    1.42158733E-01 
   8.14332082E-01    3.42704718E-01 
P    1    1.000000
   2.88875473E-01    4.64458224E-01 
P    1    1.000000
   1.00568237E-01    2.49557899E-01 
D    1    1.000000
   1.09700000E+00    1.00000000E+00 
D    1    1.000000
   3.18000000E-01    1.00000000E+00 
F    1    1.000000
   7.61000000E-01    1.00000000E+00 
****
C    0
S    6    1.000000
   1.35753497E+04    2.22458144E-04 
   2.03523337E+03    1.72327383E-03 
   4.63225624E+02    8.92557153E-03 
   1.31200196E+02    3.57279845E-02 
   4.28530159E+01    1.10762599E-01 
   1.55841858E+01    2.42956276E-01 
S    2    1.000000
   6.20671385E+00    4.14402634E-01 
   2.57648965E+00    2.37449687E-01 
S    1    1.000000
   5.76963394E-01    1.00000000E+00 
S    1    1.000000
   2.29728314E-01    1.00000000E+00 
S    1    1.000000
   9.51644400E-02    1.00000000E+00 
S    1    1.000000
   4.84754014E-02    1.00000000E+00 
P    4    1.000000
   3.46972322E+01    5.33336578E-03 
   7.95826228E+00    3.58641091E-02 
   2.37808269E+00    1.42158733E-01 
   8.14332082E-01    3.42704718E-01 
P    1    1.000000
   2.88875473E-01    4.64458224E-01 
P    1    1.000000
   1.00568237E-01    2.49557899E-01 
D    1    1.000000
   1.09700000E+00    1.00000000E+00 
D    1    1.000000
   3.18000000E-01    1.00000000E+00 
F    1    1.000000
   7.61000000E-01    1.00000000E+00 
****
C    0
S    6    1.000000
   1.35753497E+04    2.22458144E-04 
   2.03523337E+03    1.72327383E-03 
   4.63225624E+02    8.92557153E-03 
   1.31200196E+02    3.57279845E-02 
   4.28530159E+01    1.10762599E-01 
   1.55841858E+01    2.42956276E-01 
S    2    1.000000
   6.20671385E+00    4.14402634E-01 
   2.57648965E+00    2.37449687E-01 
S    1    1.000000
   5.76963394E-01    1.00000000E+00 
S    1    1.000000
   2.29728314E-01    1.00000000E+00 
S    1    1.000000
   9.51644400E-02    1.00000000E+00 
S    1    1.000000
   4.84754014E-02    1.00000000E+00 
P    4    1.000000
   3.46972322E+01    5.33336578E-03 
   7.95826228E+00    3.58641091E-02 
   2.37808269E+00    1.42158733E-01 
   8.14332082E-01    3.42704718E-01 
P    1    1.000000
   2.88875473E-01    4.64458224E-01 
P    1    1.000000
   1.00568237E-01    2.49557899E-01 
D    1    1.000000
   1.09700000E+00    1.00000000E+00 
D    1    1.000000
   3.18000000E-01    1.00000000E+00 
F    1    1.000000
   7.61000000E-01    1.00000000E+00 
****
O    0
S    6    1.000000
   2.70323826E+04    2.17263025E-04 
   4.05238714E+03    1.68386622E-03 
   9.22327227E+02    8.73956163E-03 
   2.61240710E+02    3.52399688E-02 
   8.53546414E+01    1.11535191E-01 
   3.10350352E+01    2.55889540E-01 
S    2    1.000000
   1.22608607E+01    3.97687309E-01 
   4.99870760E+00    2.46278494E-01 
S    1    1.000000
   1.17031082E+00    1.00000000E+00 
S    1    1.000000
   4.64747410E-01    1.00000000E+00 
S    1    1.000000
   1.85045364E-01    1.00000000E+00 
S    1    1.000000
   7.02880263E-02    1.00000000E+00 
P    4    1.000000
   6.32749548E+01    6.06851034E-03 
   1.46270494E+01    4.19125758E-02 
   4.45012235E+00    1.61538411E-01 
   1.52757996E+00    3.57069513E-01 
P    1    1.000000
   5.29351179E-01    4.47942075E-01 
P    1    1.000000
   1.74784213E-01    2.44460697E-01 
P    1    1.000000
   5.11127457E-02    1.00000000E+00 
D    1    1.000000
   2.31400000E+00    1.00000000E+00 
D    1    1.000000
   6.45000000E-01    1.00000000E+00 
F    1    1.000000
   1.42800000E+00    1.00000000E+00 
****
C    0
S    6    1.000000
   1.35753497E+04    2.22458144E-04 
   2.03523337E+03    1.72327383E-03 
   4.63225624E+02    8.92557153E-03 
   1.31200196E+02    3.57279845E-02 
   4.28530159E+01    1.10762599E-01 
   1.55841858E+01    2.42956276E-01 
S    2    1.000000
   6.20671385E+00    4.14402634E-01 
   2.57648965E+00    2.37449687E-01 
S    1    1.000000
   5.76963394E-01    1.00000000E+00 
S    1    1.000000
   2.29728314E-01    1.00000000E+00 
S    1    1.000000
   9.51644400E-02    1.00000000E+00 
S    1    1.000000
   4.84754014E-02    1.00000000E+00 
P    4    1.000000
   3.46972322E+01    5.33336578E-03 
   7.95826228E+00    3.58641091E-02 
   2.37808269E+00    1.42158733E-01 
   8.14332082E-01    3.42704718E-01 
P    1    1.000000
   2.88875473E-01    4.64458224E-01 
P    1    1.000000
   1.00568237E-01    2.49557899E-01 
D    1    1.000000
   1.09700000E+00    1.00000000E+00 
D    1    1.000000
   3.18000000E-01    1.00000000E+00 
F    1    1.000000
   7.61000000E-01    1.00000000E+00 
****
C    0
S    6    1.000000
   1.35753497E+04    2.22458144E-04 
   2.03523337E+03    1.72327383E-03 
   4.63225624E+02    8.92557153E-03 
   1.31200196E+02    3.57279845E-02 
   4.28530159E+01    1.10762599E-01 
   1.55841858E+01    2.42956276E-01 
S    2    1.000000
   6.20671385E+00    4.14402634E-01 
   2.57648965E+00    2.37449687E-01 
S    1    1.000000
   5.76963394E-01    1.00000000E+00 
S    1    1.000000
   2.29728314E-01    1.00000000E+00 
S    1    1.000000
   9.51644400E-02    1.00000000E+00 
S    1    1.000000
   4.84754014E-02    1.00000000E+00 
P    4    1.000000
   3.46972322E+01    5.33336578E-03 
   7.95826228E+00    3.58641091E-02 
   2.37808269E+00    1.42158733E-01 
   8.14332082E-01    3.42704718E-01 
P    1    1.000000
   2.88875473E-01    4.64458224E-01 
P    1    1.000000
   1.00568237E-01    2.49557899E-01 
D    1    1.000000
   1.09700000E+00    1.00000000E+00 
D    1    1.000000
   3.18000000E-01    1.00000000E+00 
F    1    1.000000
   7.61000000E-01    1.00000000E+00 
****
C    0
S    6    1.000000
   1.35753497E+04    2.22458144E-04 
   2.03523337E+03    1.72327383E-03 
   4.63225624E+02    8.92557153E-03 
   1.31200196E+02    3.57279845E-02 
   4.28530159E+01    1.10762599E-01 
   1.55841858E+01    2.42956276E-01 
S    2    1.000000
   6.20671385E+00    4.14402634E-01 
   2.57648965E+00    2.37449687E-01 
S    1    1.000000
   5.76963394E-01    1.00000000E+00 
S    1    1.000000
   2.29728314E-01    1.00000000E+00 
S    1    1.000000
   9.51644400E-02    1.00000000E+00 
S    1    1.000000
   4.84754014E-02    1.00000000E+00 
P    4    1.000000
   3.46972322E+01    5.33336578E-03 
   7.95826228E+00    3.58641091E-02 
   2.37808269E+00    1.42158733E-01 
   8.14332082E-01    3.42704718E-01 
P    1    1.000000
   2.88875473E-01    4.64458224E-01 
P    1    1.000000
   1.00568237E-01    2.49557899E-01 
D    1    1.000000
   1.09700000E+00    1.00000000E+00 
D    1    1.000000
   3.18000000E-01    1.00000000E+00 
F    1    1.000000
   7.61000000E-01    1.00000000E+00 
****
C    0
S    6    1.000000
   1.35753497E+04    2.22458144E-04 
   2.03523337E+03    1.72327383E-03 
   4.63225624E+02    8.92557153E-03 
   1.31200196E+02    3.57279845E-02 
   4.28530159E+01    1.10762599E-01 
   1.55841858E+01    2.42956276E-01 
S    2    1.000000
   6.20671385E+00    4.14402634E-01 
   2.57648965E+00    2.37449687E-01 
S    1    1.000000
   5.76963394E-01    1.00000000E+00 
S    1    1.000000
   2.29728314E-01    1.00000000E+00 
S    1    1.000000
   9.51644400E-02    1.00000000E+00 
S    1    1.000000
   4.84754014E-02    1.00000000E+00 
P    4    1.000000
   3.46972322E+01    5.33336578E-03 
   7.95826228E+00    3.58641091E-02 
   2.37808269E+00    1.42158733E-01 
   8.14332082E-01    3.42704718E-01 
P    1    1.000000
   2.88875473E-01    4.64458224E-01 
P    1    1.000000
   1.00568237E-01    2.49557899E-01 
D    1    1.000000
   1.09700000E+00    1.00000000E+00 
D    1    1.000000
   3.18000000E-01    1.00000000E+00 
F    1    1.000000
   7.61000000E-01    1.00000000E+00 
****
C    0
S    6    1.000000
   1.35753497E+04    2.22458144E-04 
   2.03523337E+03    1.72327383E-03 
   4.63225624E+02    8.92557153E-03 
   1.31200196E+02    3.57279845E-02 
   4.28530159E+01    1.10762599E-01 
   1.55841858E+01    2.42956276E-01 
S    2    1.000000
   6.20671385E+00    4.14402634E-01 
   2.57648965E+00    2.37449687E-01 
S    1    1.000000
   5.76963394E-01    1.00000000E+00 
S    1    1.000000
   2.29728314E-01    1.00000000E+00 
S    1    1.000000
   9.51644400E-02    1.00000000E+00 
S    1    1.000000
   4.84754014E-02    1.00000000E+00 
P    4    1.000000
   3.46972322E+01    5.33336578E-03 
   7.95826228E+00    3.58641091E-02 
   2.37808269E+00    1.42158733E-01 
   8.14332082E-01    3.42704718E-01 
P    1    1.000000
   2.88875473E-01    4.64458224E-01 
P    1    1.000000
   1.00568237E-01    2.49557899E-01 
D    1    1.000000
   1.09700000E+00    1.00000000E+00 
D    1    1.000000
   3.18000000E-01    1.00000000E+00 
F    1    1.000000
   7.61000000E-01    1.00000000E+00 
****
C    0
S    6    1.000000
   1.35753497E+04    2.22458144E-04 
   2.03523337E+03    1.72327383E-03 
   4.63225624E+02    8.92557153E-03 
   1.31200196E+02    3.57279845E-02 
   4.28530159E+01    1.10762599E-01 
   1.55841858E+01    2.42956276E-01 
S    2    1.000000
   6.20671385E+00    4.14402634E-01 
   2.57648965E+00    2.37449687E-01 
S    1    1.000000
   5.76963394E-01    1.00000000E+00 
S    1    1.000000
   2.29728314E-01    1.00000000E+00 
S    1    1.000000
   9.51644400E-02    1.00000000E+00 
S    1    1.000000
   4.84754014E-02    1.00000000E+00 
P    4    1.000000
   3.46972322E+01    5.33336578E-03 
   7.95826228E+00    3.58641091E-02 
   2.37808269E+00    1.42158733E-01 
   8.14332082E-01    3.42704718E-01 
P    1    1.000000
   2.88875473E-01    4.64458224E-01 
P    1    1.000000
   1.00568237E-01    2.49557899E-01 
D    1    1.000000
   1.09700000E+00    1.00000000E+00 
D    1    1.000000
   3.18000000E-01    1.00000000E+00 
F    1    1.000000
   7.61000000E-01    1.00000000E+00 
****
O    0
S    6    1.000000
   2.70323826E+04    2.17263025E-04 
   4.05238714E+03    1.68386622E-03 
   9.22327227E+02    8.73956163E-03 
   2.61240710E+02    3.52399688E-02 
   8.53546414E+01    1.11535191E-01 
   3.10350352E+01    2.55889540E-01 
S    2    1.000000
   1.22608607E+01    3.97687309E-01 
   4.99870760E+00    2.46278494E-01 
S    1    1.000000
   1.17031082E+00    1.00000000E+00 
S    1    1.000000
   4.64747410E-01    1.00000000E+00 
S    1    1.000000
   1.85045364E-01    1.00000000E+00 
S    1    1.000000
   7.02880263E-02    1.00000000E+00 
P    4    1.000000
   6.32749548E+01    6.06851034E-03 
   1.46270494E+01    4.19125758E-02 
   4.45012235E+00    1.61538411E-01 
   1.52757996E+00    3.57069513E-01 
P    1    1.000000
   5.29351179E-01    4.47942075E-01 
P    1    1.000000
   1.74784213E-01    2.44460697E-01 
P    1    1.000000
   5.11127457E-02    1.00000000E+00 
D    1    1.000000
   2.31400000E+00    1.00000000E+00 
D    1    1.000000
   6.45000000E-01    1.00000000E+00 
F    1    1.000000
   1.42800000E+00    1.00000000E+00 
****
H    0
S    3    1.000000
   3.40613410E+01    6.02519780E-03 
   5.12357460E+00    4.50210940E-02 
   1.16466260E+00    2.01897260E-01 
S    1    1.000000
   3.27230410E-01    1.00000000E+00 
S    1    1.000000
   1.03072410E-01    1.00000000E+00 
P    1    1.000000
   8.00000000E-01    1.00000000E+00 
****
O    0
S    6    1.000000
   2.70323826E+04    2.17263025E-04 
   4.05238714E+03    1.68386622E-03 
   9.22327227E+02    8.73956163E-03 
   2.61240710E+02    3.52399688E-02 
   8.53546414E+01    1.11535191E-01 
   3.10350352E+01    2.55889540E-01 
S    2    1.000000
   1.22608607E+01    3.97687309E-01 
   4.99870760E+00    2.46278494E-01 
S    1    1.000000
   1.17031082E+00    1.00000000E+00 
S    1    1.000000
   4.64747410E-01    1.00000000E+00 
S    1    1.000000
   1.85045364E-01    1.00000000E+00 
S    1    1.000000
   7.02880263E-02    1.00000000E+00 
P    4    1.000000
   6.32749548E+01    6.06851034E-03 
   1.46270494E+01    4.19125758E-02 
   4.45012235E+00    1.61538411E-01 
   1.52757996E+00    3.57069513E-01 
P    1    1.000000
   5.29351179E-01    4.47942075E-01 
P    1    1.000000
   1.74784213E-01    2.44460697E-01 
P    1    1.000000
   5.11127457E-02    1.00000000E+00 
D    1    1.000000
   2.31400000E+00    1.00000000E+00 
D    1    1.000000
   6.45000000E-01    1.00000000E+00 
F    1    1.000000
   1.42800000E+00    1.00000000E+00 
****
H    0
S    3    1.000000
   3.40613410E+01    6.02519780E-03 
   5.12357460E+00    4.50210940E-02 
   1.16466260E+00    2.01897260E-01 
S    1    1.000000
   3.27230410E-01    1.00000000E+00 
S    1    1.000000
   1.03072410E-01    1.00000000E+00 
P    1    1.000000
   8.00000000E-01    1.00000000E+00 
****
H    0
S    3    1.000000
   3.40613410E+01    6.02519780E-03 
   5.12357460E+00    4.50210940E-02 
   1.16466260E+00    2.01897260E-01 
S    1    1.000000
   3.27230410E-01    1.00000000E+00 
S    1    1.000000
   1.03072410E-01    1.00000000E+00 
P    1    1.000000
   8.00000000E-01    1.00000000E+00 
****
O    0
S    6    1.000000
   2.70323826E+04    2.17263025E-04 
   4.05238714E+03    1.68386622E-03 
   9.22327227E+02    8.73956163E-03 
   2.61240710E+02    3.52399688E-02 
   8.53546414E+01    1.11535191E-01 
   3.10350352E+01    2.55889540E-01 
S    2    1.000000
   1.22608607E+01    3.97687309E-01 
   4.99870760E+00    2.46278494E-01 
S    1    1.000000
   1.17031082E+00    1.00000000E+00 
S    1    1.000000
   4.64747410E-01    1.00000000E+00 
S    1    1.000000
   1.85045364E-01    1.00000000E+00 
S    1    1.000000
   7.02880263E-02    1.00000000E+00 
P    4    1.000000
   6.32749548E+01    6.06851034E-03 
   1.46270494E+01    4.19125758E-02 
   4.45012235E+00    1.61538411E-01 
   1.52757996E+00    3.57069513E-01 
P    1    1.000000
   5.29351179E-01    4.47942075E-01 
P    1    1.000000
   1.74784213E-01    2.44460697E-01 
P    1    1.000000
   5.11127457E-02    1.00000000E+00 
D    1    1.000000
   2.31400000E+00    1.00000000E+00 
D    1    1.000000
   6.45000000E-01    1.00000000E+00 
F    1    1.000000
   1.42800000E+00    1.00000000E+00 
****
H    0
S    3    1.000000
   3.40613410E+01    6.02519780E-03 
   5.12357460E+00    4.50210940E-02 
   1.16466260E+00    2.01897260E-01 
S    1    1.000000
   3.27230410E-01    1.00000000E+00 
S    1    1.000000
   1.03072410E-01    1.00000000E+00 
P    1    1.000000
   8.00000000E-01    1.00000000E+00 
****
O    0
S    6    1.000000
   2.70323826E+04    2.17263025E-04 
   4.05238714E+03    1.68386622E-03 
   9.22327227E+02    8.73956163E-03 
   2.61240710E+02    3.52399688E-02 
   8.53546414E+01    1.11535191E-01 
   3.10350352E+01    2.55889540E-01 
S    2    1.000000
   1.22608607E+01    3.97687309E-01 
   4.99870760E+00    2.46278494E-01 
S    1    1.000000
   1.17031082E+00    1.00000000E+00 
S    1    1.000000
   4.64747410E-01    1.00000000E+00 
S    1    1.000000
   1.85045364E-01    1.00000000E+00 
S    1    1.000000
   7.02880263E-02    1.00000000E+00 
P    4    1.000000
   6.32749548E+01    6.06851034E-03 
   1.46270494E+01    4.19125758E-02 
   4.45012235E+00    1.61538411E-01 
   1.52757996E+00    3.57069513E-01 
P    1    1.000000
   5.29351179E-01    4.47942075E-01 
P    1    1.000000
   1.74784213E-01    2.44460697E-01 
P    1    1.000000
   5.11127457E-02    1.00000000E+00 
D    1    1.000000
   2.31400000E+00    1.00000000E+00 
D    1    1.000000
   6.45000000E-01    1.00000000E+00 
F    1    1.000000
   1.42800000E+00    1.00000000E+00 
****
O    0
S    6    1.000000
   2.70323826E+04    2.17263025E-04 
   4.05238714E+03    1.68386622E-03 
   9.22327227E+02    8.73956163E-03 
   2.61240710E+02    3.52399688E-02 
   8.53546414E+01    1.11535191E-01 
   3.10350352E+01    2.55889540E-01 
S    2    1.000000
   1.22608607E+01    3.97687309E-01 
   4.99870760E+00    2.46278494E-01 
S    1    1.000000
   1.17031082E+00    1.00000000E+00 
S    1    1.000000
   4.64747410E-01    1.00000000E+00 
S    1    1.000000
   1.85045364E-01    1.00000000E+00 
S    1    1.000000
   7.02880263E-02    1.00000000E+00 
P    4    1.000000
   6.32749548E+01    6.06851034E-03 
   1.46270494E+01    4.19125758E-02 
   4.45012235E+00    1.61538411E-01 
   1.52757996E+00    3.57069513E-01 
P    1    1.000000
   5.29351179E-01    4.47942075E-01 
P    1    1.000000
   1.74784213E-01    2.44460697E-01 
P    1    1.000000
   5.11127457E-02    1.00000000E+00 
D    1    1.000000
   2.31400000E+00    1.00000000E+00 
D    1    1.000000
   6.45000000E-01    1.00000000E+00 
F    1    1.000000
   1.42800000E+00    1.00000000E+00 
****
O    0
S    6    1.000000
   2.70323826E+04    2.17263025E-04 
   4.05238714E+03    1.68386622E-03 
   9.22327227E+02    8.73956163E-03 
   2.61240710E+02    3.52399688E-02 
   8.53546414E+01    1.11535191E-01 
   3.10350352E+01    2.55889540E-01 
S    2    1.000000
   1.22608607E+01    3.97687309E-01 
   4.99870760E+00    2.46278494E-01 
S    1    1.000000
   1.17031082E+00    1.00000000E+00 
S    1    1.000000
   4.64747410E-01    1.00000000E+00 
S    1    1.000000
   1.85045364E-01    1.00000000E+00 
S    1    1.000000
   7.02880263E-02    1.00000000E+00 
P    4    1.000000
   6.32749548E+01    6.06851034E-03 
   1.46270494E+01    4.19125758E-02 
   4.45012235E+00    1.61538411E-01 
   1.52757996E+00    3.57069513E-01 
P    1    1.000000
   5.29351179E-01    4.47942075E-01 
P    1    1.000000
   1.74784213E-01    2.44460697E-01 
P    1    1.000000
   5.11127457E-02    1.00000000E+00 
D    1    1.000000
   2.31400000E+00    1.00000000E+00 
D    1    1.000000
   6.45000000E-01    1.00000000E+00 
F    1    1.000000
   1.42800000E+00    1.00000000E+00 
****
H    0
S    3    1.000000
   3.40613410E+01    6.02519780E-03 
   5.12357460E+00    4.50210940E-02 
   1.16466260E+00    2.01897260E-01 
S    1    1.000000
   3.27230410E-01    1.00000000E+00 
S    1    1.000000
   1.03072410E-01    1.00000000E+00 
P    1    1.000000
   8.00000000E-01    1.00000000E+00 
****
C    0
S    6    1.000000
   1.35753497E+04    2.22458144E-04 
   2.03523337E+03    1.72327383E-03 
   4.63225624E+02    8.92557153E-03 
   1.31200196E+02    3.57279845E-02 
   4.28530159E+01    1.10762599E-01 
   1.55841858E+01    2.42956276E-01 
S    2    1.000000
   6.20671385E+00    4.14402634E-01 
   2.57648965E+00    2.37449687E-01 
S    1    1.000000
   5.76963394E-01    1.00000000E+00 
S    1    1.000000
   2.29728314E-01    1.00000000E+00 
S    1    1.000000
   9.51644400E-02    1.00000000E+00 
S    1    1.000000
   4.84754014E-02    1.00000000E+00 
P    4    1.000000
   3.46972322E+01    5.33336578E-03 
   7.95826228E+00    3.58641091E-02 
   2.37808269E+00    1.42158733E-01 
   8.14332082E-01    3.42704718E-01 
P    1    1.000000
   2.88875473E-01    4.64458224E-01 
P    1    1.000000
   1.00568237E-01    2.49557899E-01 
D    1    1.000000
   1.09700000E+00    1.00000000E+00 
D    1    1.000000
   3.18000000E-01    1.00000000E+00 
F    1    1.000000
   7.61000000E-01    1.00000000E+00 
****
H    0
S    3    1.000000
   3.40613410E+01    6.02519780E-03 
   5.12357460E+00    4.50210940E-02 
   1.16466260E+00    2.01897260E-01 
S    1    1.000000
   3.27230410E-01    1.00000000E+00 
S    1    1.000000
   1.03072410E-01    1.00000000E+00 
P    1    1.000000
   8.00000000E-01    1.00000000E+00 
****
H    0
S    3    1.000000
   3.40613410E+01    6.02519780E-03 
   5.12357460E+00    4.50210940E-02 
   1.16466260E+00    2.01897260E-01 
S    1    1.000000
   3.27230410E-01    1.00000000E+00 
S    1    1.000000
   1.03072410E-01    1.00000000E+00 
P    1    1.000000
   8.00000000E-01    1.00000000E+00 
****
H    0
S    3    1.000000
   3.40613410E+01    6.02519780E-03 
   5.12357460E+00    4.50210940E-02 
   1.16466260E+00    2.01897260E-01 
S    1    1.000000
   3.27230410E-01    1.00000000E+00 
S    1    1.000000
   1.03072410E-01    1.00000000E+00 
P    1    1.000000
   8.00000000E-01    1.00000000E+00 
****
H    0
S    3    1.000000
   3.40613410E+01    6.02519780E-03 
   5.12357460E+00    4.50210940E-02 
   1.16466260E+00    2.01897260E-01 
S    1    1.000000
   3.27230410E-01    1.00000000E+00 
S    1    1.000000
   1.03072410E-01    1.00000000E+00 
P    1    1.000000
   8.00000000E-01    1.00000000E+00 
****
H    0
S    3    1.000000
   3.40613410E+01    6.02519780E-03 
   5.12357460E+00    4.50210940E-02 
   1.16466260E+00    2.01897260E-01 
S    1    1.000000
   3.27230410E-01    1.00000000E+00 
S    1    1.000000
   1.03072410E-01    1.00000000E+00 
P    1    1.000000
   8.00000000E-01    1.00000000E+00 
****
H    0
S    3    1.000000
   3.40613410E+01    6.02519780E-03 
   5.12357460E+00    4.50210940E-02 
   1.16466260E+00    2.01897260E-01 
S    1    1.000000
   3.27230410E-01    1.00000000E+00 
S    1    1.000000
   1.03072410E-01    1.00000000E+00 
P    1    1.000000
   8.00000000E-01    1.00000000E+00 
****
H    0
S    3    1.000000
   3.40613410E+01    6.02519780E-03 
   5.12357460E+00    4.50210940E-02 
   1.16466260E+00    2.01897260E-01 
S    1    1.000000
   3.27230410E-01    1.00000000E+00 
S    1    1.000000
   1.03072410E-01    1.00000000E+00 
P    1    1.000000
   8.00000000E-01    1.00000000E+00 
****
$end
-----------------------------------------------------------------------
 There are 331 shells and 829 basis functions

 Total QAlloc Memory Limit  64000 MB
 Mega-Array Size      1956 MB
 MEM_STATIC part      2000 MB

 User-specified dielectric constants (eps_0 = 78.39, eps_inf = 1.78)
 Using C-PCM dielectric factor f(eps) = (eps-1)/eps = 0.987243
 Static dielectric constant eps = 78.39
 Discretize the solute cavity surface with Lebedev spheres
	Using 110 Lebedev grid points for each H atom
	Using 194 Lebedev grid points for other atoms
	Atomic van der Waals radii (Bondi set) will be scaled by 1.20
 Using smooth SwiG surface discretization
 Remove points where switching function is < 1.0e-08
 Keep 2341 surface tesserae and discard 3441 interior tesserae
 Molecular Surface Area = 327.876 Angst**2

 A cutoff of  1.0D-12 yielded  38358 shell pairs
 There are    225088 function pairs (    284888 Cartesian)
 Smallest overlap matrix eigenvalue = 4.24E-06

 Scale SEOQF with 1.000000e-01/1.000000e-01/1.000000e-02

 Standard Electronic Orientation quadrupole field applied
 Nucleus-field energy     =     0.0000000188 hartrees
 Guess from superposition of atomic densities
 Warning:  Energy on first SCF cycle will be non-variational
 SAD guess density has 164.000000 electrons

 -----------------------------------------------------------------------
  General SCF calculation program by
  Eric Jon Sundstrom, Paul Horn, Yuezhi Mao, Dmitri Zuev, Alec White,
  David Stuck, Shaama M.S., Shane Yost, Joonho Lee, David Small,
  Daniel Levine, Susi Lehtola, Hugh Burton, Evgeny Epifanovsky,
  Bang C. Huynh
 -----------------------------------------------------------------------
 Exchange:     0.1900 Hartree-Fock + 0.3500 B88 + 0.4600 muB88 + LR-HF
 Correlation:  0.1900 VWN5 + 0.8100 LYP
 Using SG-1 standard quadrature grid
 using 16 threads for integral computing
 -------------------------------------------------------
 OpenMP Integral computing Module                
 Release: version 1.0, May 2013, Q-Chem Inc. Pittsburgh 
 -------------------------------------------------------
 C-PCM solvent model [f = (eps-1)/eps], solve by matrix inversion
 DFT Correlation          Energy =  -6.69332573779551
 DFT Exchange             Energy = -102.74227558248290
 HF Exchange              Energy = -42.04030866260953
 One-Electron             Energy = -5214.24505972040151
 SCRF wf-dependent energy Energy =   0.00000000000000
 Total Coulomb            Energy = 2369.87218553987623
 Nuclear repulsion Energy = 1845.65696445575645
 A restricted SCF calculation will be
 performed using DIIS
 SCF converges when DIIS error is below 1.0e-08
 DFT Correlation          Energy =  -6.69332573779551
 DFT Exchange             Energy = -102.74227558248290
 HF Exchange              Energy = -42.04030866260953
 One-Electron             Energy = -5214.24505972040151
 SCRF wf-dependent energy Energy =   0.00000000000000
 Total Coulomb            Energy = 2369.87218553987623
 ---------------------------------------
  Cycle       Energy         DIIS error
 ---------------------------------------
 DFT Correlation          Energy =  -6.78107302018737
 DFT Exchange             Energy = -104.93396046969406
 HF Exchange              Energy = -40.68032024005792
 One-Electron             Energy = -5234.18495149431510
 SCRF wf-dependent energy Energy =  -1.53617995876016
 Total Coulomb            Energy = 2399.35490742701722
 Nuclear repulsion Energy = 1845.65696445575645
    1   -1150.1918197077      2.01e-02  
 DFT Correlation          Energy =  -6.71813743322176
 DFT Exchange             Energy = -103.07506977463963
 HF Exchange              Energy = -40.15944425613839
 One-Electron             Energy = -5222.32036101232552
 SCRF wf-dependent energy Energy =   0.86839546371129
 Total Coulomb            Energy = 2382.81607822418937
 Nuclear repulsion Energy = 1845.65696445575645
    2   -1143.1046133002      2.17e-03  
 DFT Correlation          Energy =  -6.74647725628500
 DFT Exchange             Energy = -103.97203131270773
 HF Exchange              Energy = -40.43174505614046
 One-Electron             Energy = -5224.43422327051576
 SCRF wf-dependent energy Energy =  -1.39230721067634
 Total Coulomb            Energy = 2387.90013695412017
 Nuclear repulsion Energy = 1845.65696445575645
    3   -1142.9315743327      2.82e-03  
 DFT Correlation          Energy =  -6.74902581994103
 DFT Exchange             Energy = -104.02139745482718
 HF Exchange              Energy = -40.44403505789347
 One-Electron             Energy = -5226.93250064309268
 SCRF wf-dependent energy Energy =  -0.80174004177843
 Total Coulomb            Energy = 2389.85536727077033
 Nuclear repulsion Energy = 1845.65696445575645
    4   -1143.4196826964      5.26e-04  
 DFT Correlation          Energy =  -6.74855048831457
 DFT Exchange             Energy = -104.00490312741417
 HF Exchange              Energy = -40.44068425631664
 One-Electron             Energy = -5226.81496798186981
 SCRF wf-dependent energy Energy =  -0.80406948085988
 Total Coulomb            Energy = 2389.71765469884804
 Nuclear repulsion Energy = 1845.65696445575645
    5   -1143.4363672910      1.89e-04  
 DFT Correlation          Energy =  -6.74831272939671
 DFT Exchange             Energy = -104.00349333653773
 HF Exchange              Energy = -40.44128185899232
 One-Electron             Energy = -5226.62406118366016
 SCRF wf-dependent energy Energy =  -0.83577825564521
 Total Coulomb            Energy = 2389.55711308610034
 Nuclear repulsion Energy = 1845.65696445575645
    6   -1143.4385561802      5.98e-05  
 DFT Correlation          Energy =  -6.74830646704998
 DFT Exchange             Energy = -104.00262591012940
 HF Exchange              Energy = -40.44135711086942
 One-Electron             Energy = -5226.65397366947946
 SCRF wf-dependent energy Energy =  -0.82155175220441
 Total Coulomb            Energy = 2389.57196096885991
 Nuclear repulsion Energy = 1845.65696445575645
    7   -1143.4388498224      1.59e-05  
 DFT Correlation          Energy =  -6.74836929931073
 DFT Exchange             Energy = -104.00424977820734
 HF Exchange              Energy = -40.44195500606820
 One-Electron             Energy = -5226.69129876152056
 SCRF wf-dependent energy Energy =  -0.81519130113020
 Total Coulomb            Energy = 2389.60519630310819
 Nuclear repulsion Energy = 1845.65696445575645
    8   -1143.4388894851      7.37e-06  
 DFT Correlation          Energy =  -6.74836388238577
 DFT Exchange             Energy = -104.00420499806526
 HF Exchange              Energy = -40.44205454518600
 One-Electron             Energy = -5226.69895003190504
 SCRF wf-dependent energy Energy =  -0.80992197938713
 Total Coulomb            Energy = 2389.60762231429862
 Nuclear repulsion Energy = 1845.65696445575645
    9   -1143.4389033874      3.74e-06  
 DFT Correlation          Energy =  -6.74835816939276
 DFT Exchange             Energy = -104.00401909659676
 HF Exchange              Energy = -40.44202893455439
 One-Electron             Energy = -5226.69811704874337
 SCRF wf-dependent energy Energy =  -0.80902670446812
 Total Coulomb            Energy = 2389.60567603359505
 Nuclear repulsion Energy = 1845.65696445575645
   10   -1143.4389086669      1.70e-06  
 DFT Correlation          Energy =  -6.74836348936312
 DFT Exchange             Energy = -104.00418745614986
 HF Exchange              Energy = -40.44207465282145
 One-Electron             Energy = -5226.70323364772139
 SCRF wf-dependent energy Energy =  -0.80755219084790
 Total Coulomb            Energy = 2389.60953732970893
 Nuclear repulsion Energy = 1845.65696445575645
   11   -1143.4389094644      6.93e-07  
 DFT Correlation          Energy =  -6.74836418289959
 DFT Exchange             Energy = -104.00417951163529
 HF Exchange              Energy = -40.44207269040653
 One-Electron             Energy = -5226.70420256616580
 SCRF wf-dependent energy Energy =  -0.80716574469170
 Total Coulomb            Energy = 2389.61011055424024
 Nuclear repulsion Energy = 1845.65696445575645
   12   -1143.4389096514      4.04e-07  
 DFT Correlation          Energy =  -6.74836386164594
 DFT Exchange             Energy = -104.00418267802394
 HF Exchange              Energy = -40.44207248537594
 One-Electron             Energy = -5226.70420264452696
 SCRF wf-dependent energy Energy =  -0.80708543651940
 Total Coulomb            Energy = 2389.61003296027047
 Nuclear repulsion Energy = 1845.65696445575645
   13   -1143.4389096858      1.38e-07  
 DFT Correlation          Energy =  -6.74836387263214
 DFT Exchange             Energy = -104.00418050283659
 HF Exchange              Energy = -40.44207154879764
 One-Electron             Energy = -5226.70424010630177
 SCRF wf-dependent energy Energy =  -0.80706330063731
 Total Coulomb            Energy = 2389.61004518535037
 Nuclear repulsion Energy = 1845.65696445575645
   14   -1143.4389096901      4.35e-08  
 DFT Correlation          Energy =  -6.74836392253969
 DFT Exchange             Energy = -104.00418200112206
 HF Exchange              Energy = -40.44207189221755
 One-Electron             Energy = -5226.70429086337481
 SCRF wf-dependent energy Energy =  -0.80705127472220
 Total Coulomb            Energy = 2389.61008580806811
 Nuclear repulsion Energy = 1845.65696445575645
   15   -1143.4389096901      1.99e-08  
   16   -1143.4389096902      4.96e-09  Convergence criterion met
 ---------------------------------------
 DFT Correlation          Energy =  -6.74836392253969
 DFT Exchange             Energy = -104.00418200112206
 HF Exchange              Energy = -40.44207189221755
 One-Electron             Energy = -5226.70429086337481
 SCRF wf-dependent energy Energy =  -0.80705127472220
 Total Coulomb            Energy = 2389.61008580806811
 Final Alpha MO Eigenvalues
            1           2           3           4           5           6
    1 -19.2941220 -19.2473103 -19.2461917 -19.2454293 -19.2447716 -19.2373388
            7           8           9          10          11          12
    1 -19.1545614 -10.3574987 -10.3455331 -10.3371041 -10.3366006 -10.3241500
           13          14          15          16          17          18
    1 -10.3229965 -10.3209788 -10.3207407 -10.2996704 -10.2955063 -10.2856682
           19          20          21          22          23          24
    1 -10.2821238 -10.2581075 -10.2565617 -10.2458502 -10.2368423  -1.2205016
           25          26          27          28          29          30
    1  -1.1765807  -1.1613114  -1.1595482  -1.1541073  -1.1364829  -1.0778871
           31          32          33          34          35          36
    1  -0.9664122  -0.9532472  -0.9206282  -0.8775818  -0.8489123  -0.8360356
           37          38          39          40          41          42
    1  -0.8247199  -0.7911952  -0.7675726  -0.7500235  -0.7154197  -0.7133032
           43          44          45          46          47          48
    1  -0.6915813  -0.6520348  -0.6486011  -0.6410784  -0.6314828  -0.6098369
           49          50          51          52          53          54
    1  -0.5989053  -0.5838431  -0.5804583  -0.5724214  -0.5611989  -0.5535057
           55          56          57          58          59          60
    1  -0.5466671  -0.5290933  -0.5213350  -0.5158329  -0.5124955  -0.5051455
           61          62          63          64          65          66
    1  -0.5044431  -0.4909523  -0.4885640  -0.4841018  -0.4690127  -0.4624988
           67          68          69          70          71          72
    1  -0.4581193  -0.4571249  -0.4523619  -0.4437879  -0.4379727  -0.4349965
           73          74          75          76          77          78
    1  -0.4217683  -0.4161474  -0.4080098  -0.3918093  -0.3510023  -0.3145474
           79          80          81          82          83          84
    1  -0.3062297  -0.2935408  -0.2900149  -0.2487821  -0.0682249   0.0098087
           85          86          87          88          89          90
    1   0.0241885   0.0302673   0.0389148   0.0403613   0.0443453   0.0448051
           91          92          93          94          95          96
    1   0.0510508   0.0594467   0.0618913   0.0666388   0.0747597   0.0753447
           97          98          99         100         101         102
    1   0.0847068   0.0886314   0.0893395   0.0953008   0.1004631   0.1034104
          103         104         105         106         107         108
    1   0.1095868   0.1103549   0.1139749   0.1177160   0.1243510   0.1303046
          109         110         111         112         113         114
    1   0.1351877   0.1429351   0.1451609   0.1475944   0.1482997   0.1495450
          115         116         117         118         119         120
    1   0.1544933   0.1640220   0.1677832   0.1744296   0.1817961   0.1863544
          121         122         123         124         125         126
    1   0.1880999   0.1906851   0.1968376   0.2040496   0.2071261   0.2105315
          127         128         129         130         131         132
    1   0.2168971   0.2218952   0.2270681   0.2306244   0.2338614   0.2374354
          133         134         135         136         137         138
    1   0.2392084   0.2418127   0.2427952   0.2478930   0.2480992   0.2578448
          139         140         141         142         143         144
    1   0.2655384   0.2713358   0.2760860   0.2807013   0.2831260   0.2859159
          145         146         147         148         149         150
    1   0.2891549   0.2981148   0.2993900   0.3046862   0.3097701   0.3109569
          151         152         153         154         155         156
    1   0.3141004   0.3194804   0.3206409   0.3256252   0.3312009   0.3349791
          157         158         159         160         161         162
    1   0.3397156   0.3452471   0.3495458   0.3512431   0.3597578   0.3620078
          163         164         165         166         167         168
    1   0.3639228   0.3683220   0.3700055   0.3751551   0.3802751   0.3851836
          169         170         171         172         173         174
    1   0.3877169   0.3950022   0.3973328   0.3986127   0.4042877   0.4105126
          175         176         177         178         179         180
    1   0.4134498   0.4209398   0.4267567   0.4296775   0.4322504   0.4389607
          181         182         183         184         185         186
    1   0.4405484   0.4469358   0.4550996   0.4564925   0.4608602   0.4640399
          187         188         189         190         191         192
    1   0.4654956   0.4689919   0.4761383   0.4793740   0.4831984   0.4850900
          193         194         195         196         197         198
    1   0.4899056   0.4947092   0.4979644   0.5050953   0.5090292   0.5147396
          199         200         201         202         203         204
    1   0.5172675   0.5240863   0.5329507   0.5351539   0.5398337   0.5419369
          205         206         207         208         209         210
    1   0.5504638   0.5535114   0.5567868   0.5637625   0.5702056   0.5733313
          211         212         213         214         215         216
    1   0.5740589   0.5810455   0.5861092   0.5912702   0.5963034   0.6030913
          217         218         219         220         221         222
    1   0.6126700   0.6144911   0.6216279   0.6346399   0.6366112   0.6419365
          223         224         225         226         227         228
    1   0.6485372   0.6486509   0.6518074   0.6557718   0.6602702   0.6626890
          229         230         231         232         233         234
    1   0.6701252   0.6728666   0.6753955   0.6834526   0.6853764   0.6919778
          235         236         237         238         239         240
    1   0.6925554   0.7045459   0.7109347   0.7146159   0.7240371   0.7312767
          241         242         243         244         245         246
    1   0.7329351   0.7366162   0.7484125   0.7498383   0.7549234   0.7582686
          247         248         249         250         251         252
    1   0.7633479   0.7733131   0.7811789   0.7830479   0.7868856   0.7899107
          253         254         255         256         257         258
    1   0.7964177   0.8000101   0.8034781   0.8087536   0.8106077   0.8181914
          259         260         261         262         263         264
    1   0.8200337   0.8251704   0.8311882   0.8399455   0.8424370   0.8456420
          265         266         267         268         269         270
    1   0.8500293   0.8591634   0.8652109   0.8728260   0.8827054   0.8931809
          271         272         273         274         275         276
    1   0.8950246   0.9038967   0.9082907   0.9143261   0.9157379   0.9196180
          277         278         279         280         281         282
    1   0.9349893   0.9403240   0.9467158   0.9546481   0.9634733   0.9837718
          283         284         285         286         287         288
    1   0.9929949   0.9982945   1.0046008   1.0220682   1.0388945   1.0413135
          289         290         291         292         293         294
    1   1.0464262   1.0534540   1.0681871   1.0722242   1.0768140   1.0838369
          295         296         297         298         299         300
    1   1.0895697   1.0989881   1.1084724   1.1138857   1.1243091   1.1296231
          301         302         303         304         305         306
    1   1.1348867   1.1388236   1.1483982   1.1642343   1.1731814   1.1776280
          307         308         309         310         311         312
    1   1.1816434   1.1904732   1.1947996   1.1993124   1.2061394   1.2150664
          313         314         315         316         317         318
    1   1.2267462   1.2387659   1.2409366   1.2529623   1.2676284   1.2712359
          319         320         321         322         323         324
    1   1.2772684   1.2937242   1.2964027   1.3072156   1.3196970   1.3382615
          325         326         327         328         329         330
    1   1.3424205   1.3505454   1.3588629   1.3776458   1.3857375   1.3883266
          331         332         333         334         335         336
    1   1.4005481   1.4041924   1.4066371   1.4201921   1.4417021   1.4465804
          337         338         339         340         341         342
    1   1.4581896   1.4653848   1.4713358   1.4805700   1.4878527   1.4977308
          343         344         345         346         347         348
    1   1.5003223   1.5044161   1.5196738   1.5299371   1.5368794   1.5493790
          349         350         351         352         353         354
    1   1.5546776   1.5564141   1.5628237   1.5781341   1.5865493   1.5875461
          355         356         357         358         359         360
    1   1.5891626   1.5935624   1.6137640   1.6175172   1.6217589   1.6253650
          361         362         363         364         365         366
    1   1.6462353   1.6474957   1.6551693   1.6603854   1.6744465   1.6867664
          367         368         369         370         371         372
    1   1.6975352   1.6992577   1.7071607   1.7156952   1.7199756   1.7341733
          373         374         375         376         377         378
    1   1.7400383   1.7451320   1.7471982   1.7582186   1.7615123   1.7716522
          379         380         381         382         383         384
    1   1.7811311   1.7834358   1.7894398   1.7963295   1.8144680   1.8190621
          385         386         387         388         389         390
    1   1.8383370   1.8436901   1.8456240   1.8532575   1.8728062   1.8865891
          391         392         393         394         395         396
    1   1.9061141   1.9095665   1.9230334   1.9379986   1.9432097   1.9534940
          397         398         399         400         401         402
    1   1.9553542   1.9602303   1.9680294   1.9817010   1.9903707   1.9947719
          403         404         405         406         407         408
    1   2.0058222   2.0165508   2.0261678   2.0358383   2.0392126   2.0455012
          409         410         411         412         413         414
    1   2.0520725   2.0605443   2.0662509   2.0787991   2.0883407   2.0978292
          415         416         417         418         419         420
    1   2.0996934   2.1065248   2.1193322   2.1298209   2.1417356   2.1434217
          421         422         423         424         425         426
    1   2.1613340   2.1679035   2.1730238   2.1840953   2.1877152   2.1918639
          427         428         429         430         431         432
    1   2.2001507   2.2109070   2.2134065   2.2211799   2.2325615   2.2357208
          433         434         435         436         437         438
    1   2.2417111   2.2561187   2.2644219   2.2711066   2.2739691   2.2867461
          439         440         441         442         443         444
    1   2.2895950   2.2997825   2.3099491   2.3326791   2.3424449   2.3470260
          445         446         447         448         449         450
    1   2.3586244   2.3625274   2.3658080   2.3839816   2.3872605   2.3995075
          451         452         453         454         455         456
    1   2.4090997   2.4345869   2.4363178   2.4456963   2.4574685   2.4658648
          457         458         459         460         461         462
    1   2.4769132   2.4823818   2.4973093   2.5059717   2.5090091   2.5337928
          463         464         465         466         467         468
    1   2.5471439   2.5534055   2.5577065   2.5750756   2.5820647   2.5879808
          469         470         471         472         473         474
    1   2.5983545   2.6015451   2.6028943   2.6248886   2.6330978   2.6338476
          475         476         477         478         479         480
    1   2.6608657   2.6653512   2.6741820   2.6892197   2.6918460   2.6954009
          481         482         483         484         485         486
    1   2.7036072   2.7094794   2.7138928   2.7236054   2.7327692   2.7355609
          487         488         489         490         491         492
    1   2.7443122   2.7558577   2.7681147   2.7762008   2.7818995   2.7901781
          493         494         495         496         497         498
    1   2.7939024   2.8169690   2.8215599   2.8370105   2.8424219   2.8508603
          499         500         501         502         503         504
    1   2.8534666   2.8605595   2.8665179   2.8725797   2.8791000   2.8813976
          505         506         507         508         509         510
    1   2.8873587   2.9005882   2.9079696   2.9087964   2.9135818   2.9184864
          511         512         513         514         515         516
    1   2.9323265   2.9440782   2.9480841   2.9558616   2.9638221   2.9714915
          517         518         519         520         521         522
    1   2.9829542   2.9931191   2.9968732   3.0067196   3.0139414   3.0157478
          523         524         525         526         527         528
    1   3.0206301   3.0252740   3.0336809   3.0407494   3.0452101   3.0572872
          529         530         531         532         533         534
    1   3.0709891   3.0796187   3.0804190   3.0886554   3.1000352   3.1046990
          535         536         537         538         539         540
    1   3.1176359   3.1361203   3.1375095   3.1415941   3.1497494   3.1518573
          541         542         543         544         545         546
    1   3.1624049   3.1802505   3.1907758   3.1911772   3.1985393   3.2061972
          547         548         549         550         551         552
    1   3.2092442   3.2193543   3.2247696   3.2259411   3.2302622   3.2413317
          553         554         555         556         557         558
    1   3.2469485   3.2483298   3.2512429   3.2587725   3.2668516   3.2704491
          559         560         561         562         563         564
    1   3.2767628   3.2837937   3.2929342   3.3037095   3.3117847   3.3208091
          565         566         567         568         569         570
    1   3.3228968   3.3301956   3.3350363   3.3426419   3.3527055   3.3552163
          571         572         573         574         575         576
    1   3.3605153   3.3692170   3.3807466   3.3882568   3.3957813   3.3993785
          577         578         579         580         581         582
    1   3.4039193   3.4113251   3.4192942   3.4321146   3.4385406   3.4401046
          583         584         585         586         587         588
    1   3.4543599   3.4579621   3.4634900   3.4670181   3.4741548   3.4797609
          589         590         591         592         593         594
    1   3.4845260   3.4867806   3.4943582   3.4991160   3.5102071   3.5165018
          595         596         597         598         599         600
    1   3.5212483   3.5256825   3.5268443   3.5461948   3.5504274   3.5641861
          601         602         603         604         605         606
    1   3.5734774   3.5783714   3.5807010   3.6018562   3.6137852   3.6214351
          607         608         609         610         611         612
    1   3.6280399   3.6296248   3.6365129   3.6422178   3.6514638   3.6713054
          613         614         615         616         617         618
    1   3.6725313   3.6783378   3.6900835   3.6948790   3.7080327   3.7214758
          619         620         621         622         623         624
    1   3.7359740   3.7459348   3.7584560   3.7619512   3.7675255   3.7927028
          625         626         627         628         629         630
    1   3.8013561   3.8151849   3.8478887   3.8553289   3.8716901   3.8773232
          631         632         633         634         635         636
    1   3.8868823   3.9220381   3.9286713   3.9473983   3.9521113   3.9729366
          637         638         639         640         641         642
    1   3.9946951   4.0212806   4.0244804   4.0345105   4.0427176   4.0557789
          643         644         645         646         647         648
    1   4.0723078   4.0842412   4.0916234   4.1107097   4.1135306   4.1314238
          649         650         651         652         653         654
    1   4.1548924   4.1777847   4.1952343   4.1997292   4.2184160   4.2269411
          655         656         657         658         659         660
    1   4.2295624   4.2349280   4.2378981   4.2399236   4.2741182   4.2842400
          661         662         663         664         665         666
    1   4.2905357   4.2946301   4.3060234   4.3115326   4.3304789   4.3476179
          667         668         669         670         671         672
    1   4.3628930   4.3714737   4.3814201   4.4037988   4.4307699   4.4409897
          673         674         675         676         677         678
    1   4.4579369   4.4763288   4.4860052   4.4982010   4.5194379   4.5408082
          679         680         681         682         683         684
    1   4.5464346   4.5629781   4.5886112   4.5916913   4.6109099   4.6184763
          685         686         687         688         689         690
    1   4.6449384   4.6603955   4.6644312   4.6742513   4.6811572   4.6906273
          691         692         693         694         695         696
    1   4.7259240   4.7692942   4.8170804   4.8240361   4.8322625   4.8684994
          697         698         699         700         701         702
    1   4.8755042   4.9276939   4.9381362   4.9592046   4.9786920   4.9840183
          703         704         705         706         707         708
    1   5.0022746   5.0399215   5.0657701   5.0889631   5.1306672   5.1415405
          709         710         711         712         713         714
    1   5.1580006   5.1730063   5.2090476   5.2383700   5.2795217   5.2849203
          715         716         717         718         719         720
    1   5.2953635   5.3166892   5.3240468   5.3283588   5.3305259   5.3568742
          721         722         723         724         725         726
    1   5.3709823   5.3742290   5.3929087   5.3998410   5.4367570   5.4710695
          727         728         729         730         731         732
    1   5.5051912   5.5144282   5.5240582   5.5323538   5.5373031   5.5658597
          733         734         735         736         737         738
    1   5.5736267   5.5866563   5.5886936   5.6313088   5.6333924   5.6709432
          739         740         741         742         743         744
    1   5.6828336   5.7088066   5.7102505   5.7861416   5.7996868   5.8248871
          745         746         747         748         749         750
    1   5.8317520   5.8490324   5.8662074   5.9226900   5.9244642   6.0219097
          751         752         753         754         755         756
    1   6.0275285   6.0546731   6.0671171   6.0787870   6.1162527   6.1522856
          757         758         759         760         761         762
    1   6.2126842   6.2241504   6.2899735   6.3416184   6.4013607   6.4369407
          763         764         765         766         767         768
    1   6.4532467   6.4567767   6.4659766   6.4705235   6.4759907   6.4924872
          769         770         771         772         773         774
    1   6.4988150   6.5143730   6.5156383   6.5344181   6.6205055   6.6680880
          775         776         777         778         779         780
    1   6.6823928   6.7097544   6.7269863   6.7349166   6.7657498   6.7807498
          781         782         783         784         785         786
    1   6.7885683   6.8343129   6.9080176   6.9137257   6.9166440   6.9232961
          787         788         789         790         791         792
    1   6.9245936   6.9424578   6.9539701   6.9687537   6.9858780   7.0362919
          793         794         795         796         797         798
    1   7.0713126   7.1278777   7.1585374   7.1698851   7.1813764   7.2353502
          799         800         801         802         803         804
    1   7.2810297   7.3307459   7.4032628   7.4109625   7.4808090   7.5029133
          805         806         807         808         809         810
    1   7.5563140   7.5846234  22.4445505  22.4880793  22.6114355  22.7970476
          811         812         813         814         815         816
    1  22.8662877  22.8864535  22.9326981  23.0025383  23.0212603  23.0661649
          817         818         819         820         821         822
    1  23.1019139  23.1586268  23.2095373  23.3818296  23.6134809  23.7048769
          823         824         825         826         827         828
    1  44.0268428  44.1162659  44.1566192  44.1606539  44.2573086  44.4155939
          829
    1  44.6897643
 SCF time:   CPU 6424.87s  wall 577.00s 
 DFT Correlation          Energy =  -6.74836392253969
 DFT Exchange             Energy = -104.00418200112206
 HF Exchange              Energy = -40.44207189221755
 One-Electron             Energy = -5226.70429086337481
 SCRF wf-dependent energy Energy =  -0.80705127472220
 Total Coulomb            Energy = 2389.61008580806811
 Nuclear repulsion Energy = 1845.65696445575645

************** Final PCM Free Energy Summary **************
 G_electrostatic  =      -0.05208368 hartree =     -32.68299996 kcal/mol
 G_cavitation     =       0.00000000 hartree =       0.00000000 kcal/mol
 G_dispersion     =       0.00000000 hartree =       0.00000000 kcal/mol
 G_repulsion      =       0.00000000 hartree =       0.00000000 kcal/mol
 --------------------------------------------------
 Non-electrostatic Free Energy =       0.00000000 hartree =       0.00000000 kcal/mol
 Total                         =      -0.05208368 hartree =     -32.68299996 kcal/mol
 --------------------------------------------------
 SCF Energy (H0 + V/2)                       =   -1143.43890969 
 Solute Internal Energy (H0)                 =   -1143.38682601 
 Total Free Energy (H0 + V/2 + non-elec)     =   -1143.43890969 hartree
                                             = -717518.74884290 kcal/mol
***********************************************************

 SCF   energy = -1143.43890969
 Total energy = -1143.43890969
 MAX_CIS_SUBSPACE fits in available memory
 Direct TDDFT/TDA calculation will be performed
 Exchange:     0.1900 Hartree-Fock + 0.3500 B88 + 0.4600 muB88 + LR-HF
 Correlation:  0.1900 VWN5 + 0.8100 LYP
 Using SG-1 standard quadrature grid
 Triplet excitation energies requested
 Singlet excitation energies requested
 Adding PCM contribution to the XC response (LR-PCM)
 Optical dielectric constant (eps_inf) =  1.78
 CIS energy converged when residual is below 10e- 6
 ---------------------------------------------------
 Iter    Rts Conv    Rts Left    Ttl Dev     Max Dev
 ---------------------------------------------------
   1         0           7      0.000881    0.000140
   2         0           7      0.000342    0.000061
   3         0           7      0.000187    0.000067
   4         0           7      0.000166    0.000104
   5         1           6      0.000097    0.000065
   6         3           4      0.000073    0.000054
   7         5           2      0.000041    0.000032
   8         5           2      0.000014    0.000010
   9         6           1      0.000007    0.000004
  10         6           1      0.000003    0.000002
  11         7           0      0.000002    0.000001    Roots Converged
 ---------------------------------------------------
 Triplets done: starting singlet calculation
 ---------------------------------------------------
 Iter    Rts Conv    Rts Left    Ttl Dev     Max Dev
 ---------------------------------------------------
  12         0           7      0.001918    0.000495
  13         0           7      0.000536    0.000116
  14         0           7      0.000286    0.000070
  15         0           7      0.000158    0.000044
  16         0           7      0.000084    0.000031
  17         1           6      0.000054    0.000025
  18         3           4      0.000028    0.000015
  19         5           2      0.000018    0.000011
  20         5           2      0.000010    0.000006
  21         6           1      0.000007    0.000004
  22         6           1      0.000005    0.000002
  23         6           1      0.000004    0.000001
  24         7           0      0.000004    0.000001    Roots Converged
 ---------------------------------------------------
 
 ---------------------------------------------------
         TDDFT/TDA Excitation Energies              
 ---------------------------------------------------

 Excited state   1: excitation energy (eV) =       1.5987
 Total energy for state   1:                 -1143.38015798 au
    Multiplicity: Triplet
    Trans. Mom.:  0.0000 X   0.0000 Y   0.0000 Z
    Strength   :     0.0000000000
    D(   77) --> V(    1) amplitude =  0.1082
    D(   81) --> V(    1) amplitude = -0.1549
    D(   81) --> V(    2) amplitude = -0.0877
    D(   82) --> V(    1) amplitude =  0.9590

 Excited state   2: excitation energy (eV) =       2.7688
 Total energy for state   2:                 -1143.33715772 au
    Multiplicity: Singlet
    Trans. Mom.: -0.2631 X  -0.5157 Y  -3.3993 Z
    Strength   :     0.8065705710
    D(   79) --> V(    1) amplitude =  0.1461
    D(   81) --> V(    1) amplitude = -0.1516
    D(   82) --> V(    1) amplitude =  0.9582

 Excited state   3: excitation energy (eV) =       2.9210
 Total energy for state   3:                 -1143.33156360 au
    Multiplicity: Triplet
    Trans. Mom.:  0.0000 X   0.0000 Y   0.0000 Z
    Strength   :     0.0000000000
    D(   76) --> V(    1) amplitude = -0.0749
    D(   77) --> V(    1) amplitude =  0.1288
    D(   79) --> V(    1) amplitude = -0.3256
    D(   79) --> V(    2) amplitude = -0.1157
    D(   79) --> V(    7) amplitude = -0.0744
    D(   79) --> V(    8) amplitude = -0.0965
    D(   80) --> V(    1) amplitude =  0.1162
    D(   81) --> V(    1) amplitude =  0.7709
    D(   81) --> V(    8) amplitude = -0.0812
    D(   81) --> V(   12) amplitude =  0.0769
    D(   82) --> V(    1) amplitude =  0.0939
    D(   82) --> V(    2) amplitude = -0.4065

 Excited state   4: excitation energy (eV) =       3.1199
 Total energy for state   4:                 -1143.32425426 au
    Multiplicity: Triplet
    Trans. Mom.:  0.0000 X   0.0000 Y   0.0000 Z
    Strength   :     0.0000000000
    D(   75) --> V(    1) amplitude = -0.0847
    D(   77) --> V(    1) amplitude =  0.1820
    D(   79) --> V(    1) amplitude =  0.8275
    D(   79) --> V(    2) amplitude =  0.0777
    D(   79) --> V(    7) amplitude =  0.1091
    D(   79) --> V(    8) amplitude =  0.1443
    D(   79) --> V(   12) amplitude =  0.0738
    D(   81) --> V(    1) amplitude =  0.1429
    D(   81) --> V(    2) amplitude = -0.0799
    D(   81) --> V(    7) amplitude = -0.0772
    D(   81) --> V(    8) amplitude = -0.0992
    D(   82) --> V(    2) amplitude = -0.3403

 Excited state   5: excitation energy (eV) =       3.4061
 Total energy for state   5:                 -1143.31373855 au
    Multiplicity: Triplet
    Trans. Mom.:  0.0000 X   0.0000 Y   0.0000 Z
    Strength   :     0.0000000000
    D(   80) --> V(    1) amplitude =  0.8825
    D(   80) --> V(    2) amplitude = -0.3261
    D(   80) --> V(    7) amplitude = -0.0919
    D(   80) --> V(    8) amplitude = -0.1143
    D(   80) --> V(   12) amplitude =  0.1037
    D(   81) --> V(    1) amplitude = -0.1774
    D(   81) --> V(    2) amplitude =  0.0927

 Excited state   6: excitation energy (eV) =       3.7012
 Total energy for state   6:                 -1143.30289188 au
    Multiplicity: Triplet
    Trans. Mom.:  0.0000 X   0.0000 Y   0.0000 Z
    Strength   :     0.0000000000
    D(   75) --> V(    1) amplitude = -0.1181
    D(   77) --> V(    1) amplitude = -0.3137
    D(   77) --> V(   30) amplitude =  0.0774
    D(   79) --> V(    1) amplitude =  0.1622
    D(   80) --> V(    1) amplitude =  0.1314
    D(   80) --> V(    2) amplitude = -0.1027
    D(   81) --> V(    1) amplitude =  0.3692
    D(   81) --> V(    2) amplitude = -0.3852
    D(   82) --> V(    1) amplitude =  0.0771
    D(   82) --> V(    2) amplitude =  0.5719
    D(   82) --> V(    7) amplitude = -0.1740
    D(   82) --> V(    8) amplitude = -0.2350
    D(   82) --> V(   11) amplitude = -0.0792
    D(   82) --> V(   12) amplitude =  0.1783
    D(   82) --> V(   14) amplitude = -0.0944
    D(   82) --> V(   17) amplitude = -0.0927

 Excited state   7: excitation energy (eV) =       3.7258
 Total energy for state   7:                 -1143.30198930 au
    Multiplicity: Singlet
    Trans. Mom.: -0.1152 X  -0.1336 Y  -1.6323 Z
    Strength   :     0.2460400452
    D(   77) --> V(    1) amplitude =  0.1608
    D(   79) --> V(    1) amplitude = -0.5253
    D(   79) --> V(    2) amplitude = -0.1074
    D(   81) --> V(    1) amplitude =  0.7843
    D(   82) --> V(    1) amplitude =  0.1985
    D(   82) --> V(    2) amplitude = -0.0973

 Excited state   8: excitation energy (eV) =       3.7572
 Total energy for state   8:                 -1143.30083487 au
    Multiplicity: Triplet
    Trans. Mom.:  0.0000 X   0.0000 Y   0.0000 Z
    Strength   :     0.0000000000
    D(   78) --> V(    1) amplitude =  0.8822
    D(   78) --> V(    2) amplitude =  0.3479
    D(   78) --> V(   11) amplitude = -0.0808
    D(   78) --> V(   12) amplitude =  0.2169
    D(   78) --> V(   14) amplitude = -0.0733
    D(   78) --> V(   30) amplitude = -0.1161

 Excited state   9: excitation energy (eV) =       3.9944
 Total energy for state   9:                 -1143.29211954 au
    Multiplicity: Singlet
    Trans. Mom.: -0.0252 X  -0.4715 Y  -0.3057 Z
    Strength   :     0.0309580861
    D(   79) --> V(    1) amplitude = -0.0875
    D(   80) --> V(    1) amplitude =  0.9378
    D(   80) --> V(    2) amplitude = -0.1527
    D(   81) --> V(    1) amplitude = -0.1310
    D(   81) --> V(    5) amplitude =  0.0818
    D(   81) --> V(    6) amplitude =  0.0803
    D(   82) --> V(    5) amplitude =  0.1059
    D(   82) --> V(    6) amplitude =  0.1042

 Excited state  10: excitation energy (eV) =       4.0148
 Total energy for state  10:                 -1143.29136806 au
    Multiplicity: Singlet
[...]
      XZZZ    -433.6252   YZZZ   -1288.9766   ZZZZ   -7952.7740
    5th-Order Moments (Debye-Ang^4)
       500     182.5408    410     139.6209    320     158.2358
       230     338.2245    140     619.6239    050    2723.8707
       401     339.4470    311     397.7106    221      58.6525
       131     612.2279    041     593.4791    302    1082.7621
       212     543.4991    122     875.6897    032    2252.9782
       203     681.4725    113    1266.6530    023    2898.5334
       104    2895.6934    014    7914.7643    005    2998.1649
 -----------------------------------------------------------------
 -----------------------------------------------------------------
                 RPA Excited-State Multipoles, State    4   
                  LMN = < X^L Y^M Z^N >
 -----------------------------------------------------------------
    Charge (ESU x 10^10)
                -0.0000
    Dipole Moment (Debye)
         X       1.9040      Y       4.4463      Z       1.1858
       Tot       4.9800
    Quadrupole Moments (Debye-Ang)
        XX    -137.3030     XY      -3.9304     YY    -127.9873
        XZ      -8.6954     YZ     -58.2873     ZZ    -111.7964
    Octopole Moments (Debye-Ang^2)
       XXX      51.4987    XXY       5.1107    XYY      45.2745
       YYY      53.7158    XXZ       9.1984    XYZ      29.1751
       YYZ     100.7335    XZZ      49.1042    YZZ     152.3868
       ZZZ      -6.3703
    Hexadecapole Moments (Debye-Ang^3)
      XXXX    -247.6325   XXXY    -155.2624   XXYY    -499.2485
      XYYY    -146.5771   YYYY   -2362.4215   XXXZ    -240.4945
      XXYZ     -32.5858   XYYZ    -193.5463   YYYZ    -593.8546
      XXZZ   -1662.9041   XYZZ    -209.5188   YYZZ   -2296.3026
      XZZZ    -378.3552   YZZZ   -1242.1208   ZZZZ   -7478.8670
    5th-Order Moments (Debye-Ang^4)
       500     182.2853    410     140.3613    320     156.7050
       230     336.3028    140     609.2312    050    2721.9469
       401     331.2736    311     394.3436    221      47.5201
       131     589.4601    041     493.2115    302    1061.8672
       212     530.4706    122     836.8065    032    2158.6586
       203     565.2274    113    1202.6559    023    2579.2740
       104    2609.0578    014    7616.4292    005    -817.0545
 -----------------------------------------------------------------
 -----------------------------------------------------------------
                 RPA Excited-State Multipoles, State    5   
                  LMN = < X^L Y^M Z^N >
 -----------------------------------------------------------------
    Charge (ESU x 10^10)
                -0.0000
    Dipole Moment (Debye)
         X       2.6468      Y       4.5685      Z      16.8728
       Tot      17.6796
    Quadrupole Moments (Debye-Ang)
        XX    -137.7993     XY      -4.7450     YY    -124.9699
        XZ     -12.3523     YZ     -57.5312     ZZ    -133.1928
    Octopole Moments (Debye-Ang^2)
       XXX      53.1386    XXY       5.7430    XYY      46.9651
       YYY      54.5740    XXZ      20.1485    XYZ      33.0625
       YYZ     147.7837    XZZ      66.8177    YZZ     181.1258
       ZZZ     244.2574
    Hexadecapole Moments (Debye-Ang^3)
      XXXX    -249.3067   XXXY    -156.9305   XXYY    -499.1868
      XYYY    -154.0353   YYYY   -2361.0634   XXXZ    -248.3860
      XXYZ     -35.4196   XYYZ    -203.9235   YYYZ    -609.1647
      XXZZ   -1687.1887   XYZZ    -223.8909   YYZZ   -2271.1009
      XZZZ    -461.1336   YZZZ   -1215.0897   ZZZZ   -8301.6105
    5th-Order Moments (Debye-Ang^4)
       500     187.8826    410     142.8933    320     160.9565
       230     342.1645    140     621.7228    050    2720.6138
       401     352.7950    311     402.1619    221      78.0318
       131     619.5769    041     761.2009    302    1099.8461
       212     560.1121    122     887.6009    032    2318.2229
       203     750.1220    113    1286.9634    023    3405.9621
       104    3019.0850    014    8308.8684    005    4211.5081
 -----------------------------------------------------------------
 -----------------------------------------------------------------
                 RPA Excited-State Multipoles, State    6   
                  LMN = < X^L Y^M Z^N >
 -----------------------------------------------------------------
    Charge (ESU x 10^10)
                -0.0000
    Dipole Moment (Debye)
         X       2.2217      Y       4.2649      Z       7.8775
       Tot       9.2293
    Quadrupole Moments (Debye-Ang)
        XX    -137.4272     XY      -3.3917     YY    -125.2655
        XZ     -10.5288     YZ     -57.4849     ZZ    -134.6649
    Octopole Moments (Debye-Ang^2)
       XXX      52.2499    XXY       4.9383    XYY      44.6107
       YYY      51.1179    XXZ      13.8103    XYZ      27.5728
       YYZ     102.3144    XZZ      58.7480    YZZ     142.1076
       ZZZ     167.2311
    Hexadecapole Moments (Debye-Ang^3)
      XXXX    -248.0599   XXXY    -154.1121   XXYY    -496.9264
      XYYY    -144.3586   YYYY   -2345.8991   XXXZ    -244.6513
      XXYZ     -31.5507   XYYZ    -191.5812   YYYZ    -587.3123
      XXZZ   -1681.8907   XYZZ    -203.4742   YYZZ   -2288.8154
      XZZZ    -427.5651   YZZZ   -1217.8854   ZZZZ   -8131.1402
    5th-Order Moments (Debye-Ang^4)
       500     184.9911    410     140.2150    320     156.1695
       230     336.0596    140     607.0569    050    2714.3928
       401     340.5516    311     391.1207    221      45.5041
       131     582.3914    041     494.2316    302    1084.0739
       212     523.7722    122     828.6093    032    2086.1394
       203     689.8669    113    1179.1891    023    2682.6571
       104    2856.7872    014    7389.8207    005    3684.2066
 -----------------------------------------------------------------
 -----------------------------------------------------------------
                 RPA Excited-State Multipoles, State    7   
                  LMN = < X^L Y^M Z^N >
 -----------------------------------------------------------------
    Charge (ESU x 10^10)
                -0.0000
    Dipole Moment (Debye)
         X       1.7088      Y       2.8576      Z       4.8781
       Tot       5.9061
    Quadrupole Moments (Debye-Ang)
        XX    -137.7447     XY      -4.8253     YY    -133.2894
        XZ      -9.4432     YZ     -58.9142     ZZ    -110.5184
    Octopole Moments (Debye-Ang^2)
       XXX      51.1966    XXY       4.3215    XYY      47.0791
       YYY      51.7984    XXZ      12.8435    XYZ      33.7597
       YYZ     120.6162    XZZ      56.3461    YZZ     176.4548
       ZZZ      74.5635
    Hexadecapole Moments (Debye-Ang^3)
      XXXX    -249.1395   XXXY    -157.1150   XXYY    -505.1833
      XYYY    -156.2739   YYYY   -2411.9273   XXXZ    -242.3639
      XXYZ     -35.2111   XYYZ    -206.3507   YYYZ    -621.9536
      XXZZ   -1673.2505   XYZZ    -233.5196   YYZZ   -2363.5461
      XZZZ    -420.1154   YZZZ   -1367.2299   ZZZZ   -7495.8224
    5th-Order Moments (Debye-Ang^4)
       500     181.6693    410     139.2390    320     160.2046
       230     339.0071    140     631.0708    050    2735.7340
       401     340.1905    311     403.8447    221      71.2471
       131     632.6232    041     671.5362    302    1078.3799
       212     557.7864    122     905.1454    032    2384.3202
       203     651.7826    113    1324.2282    023    2984.4490
       104    2832.0378    014    8394.4262    005    1157.3207
 -----------------------------------------------------------------
 -----------------------------------------------------------------
                 RPA Excited-State Multipoles, State    8   
                  LMN = < X^L Y^M Z^N >
 -----------------------------------------------------------------
    Charge (ESU x 10^10)
                -0.0000
    Dipole Moment (Debye)
         X      -0.0889      Y      -4.3358      Z      -3.4592
       Tot       5.5474
    Quadrupole Moments (Debye-Ang)
        XX    -137.0893     XY       3.0550     YY    -110.7644
        XZ       0.7343     YZ     -19.6491     ZZ     -92.8614
    Octopole Moments (Debye-Ang^2)
       XXX      50.6072    XXY      -2.5741    XYY      24.0515
       YYY     -18.4434    XXZ       4.9976    XYZ      -4.3864
       YYZ      10.3669    XZZ       2.6259    YZZ     -27.9961
       ZZZ    -154.3749
    Hexadecapole Moments (Debye-Ang^3)
      XXXX    -249.9729   XXXY    -148.6144   XXYY    -481.1166
      XYYY     -85.1841   YYYY   -2191.5722   XXXZ    -235.8738
      XXYZ       1.4548   XYYZ     -97.7387   YYYZ    -280.2960
      XXZZ   -1642.0314   XYZZ     -48.9399   YYZZ   -1873.2910
      XZZZ    -144.6270   YZZZ    -355.9151   ZZZZ   -6860.6105
    5th-Order Moments (Debye-Ang^4)
       500     184.9171    410     131.4218    320     133.6121
       230     267.2116    140     415.3308    050    2057.1929
       401     336.0246    311     361.5041    221     -41.8815
       131     303.6317    041    -353.2033    302    1035.6393
       212     369.8444    122     384.8923    032     714.3445
       203     425.1677    113     417.0256    023     454.4737
       104    1409.3503    014    3218.3501    005   -5260.3969
 -----------------------------------------------------------------
 -----------------------------------------------------------------
                 RPA Excited-State Multipoles, State    9   
                  LMN = < X^L Y^M Z^N >
 -----------------------------------------------------------------
    Charge (ESU x 10^10)
                -0.0000
    Dipole Moment (Debye)
         X       2.6009      Y       5.9595      Z       9.0712
       Tot      11.1610
    Quadrupole Moments (Debye-Ang)
        XX    -137.6270     XY      -3.8779     YY    -126.6098
        XZ     -11.4174     YZ     -58.9777     ZZ    -141.2287
    Octopole Moments (Debye-Ang^2)
       XXX      52.8439    XXY       6.2655    XYY      48.0543
       YYY      65.1702    XXZ      15.4551    XYZ      31.5412
       YYZ     115.9541    XZZ      63.1297    YZZ     157.1810
       ZZZ     182.7267
    Hexadecapole Moments (Debye-Ang^3)
      XXXX    -249.0946   XXXY    -155.5847   XXYY    -499.8340
      XYYY    -147.1623   YYYY   -2354.7342   XXXZ    -246.2908
      XXYZ     -35.0112   XYYZ    -201.1711   YYYZ    -605.9309
      XXZZ   -1688.5816   XYZZ    -221.3660   YYZZ   -2362.4574
      XZZZ    -447.6756   YZZZ   -1277.0590   ZZZZ   -8244.4774
    5th-Order Moments (Debye-Ang^4)
       500     186.5130    410     142.6872    320     161.8149
       230     346.0869    140     635.9030    050    2839.8255
       401     345.0371    311     399.8745    221      62.1342
       131     612.3105    041     607.4002    302    1091.8970
       212     543.6957    122     875.2286    032    2223.4902
       203     711.8551    113    1261.8378    023    2932.0501
       104    2950.4168    014    7724.8284    005    3848.0042
 -----------------------------------------------------------------
 -----------------------------------------------------------------
                 RPA Excited-State Multipoles, State   10   
                  LMN = < X^L Y^M Z^N >
 -----------------------------------------------------------------
    Charge (ESU x 10^10)
                -0.0000
    Dipole Moment (Debye)
         X       2.7573      Y       3.8988      Z      20.4302
       Tot      20.9809
    Quadrupole Moments (Debye-Ang)
        XX    -138.0225     XY      -4.9306     YY    -125.5130
        XZ     -12.7708     YZ     -58.3310     ZZ    -132.5058
    Octopole Moments (Debye-Ang^2)
       XXX      53.3217    XXY       5.3495    XYY      47.4336
       YYY      51.5358    XXZ      22.2730    XYZ      34.0807
       YYZ     157.0396    XZZ      68.7149    YZZ     177.5173
       ZZZ     290.0593
    Hexadecapole Moments (Debye-Ang^3)
      XXXX    -250.3098   XXXY    -157.5198   XXYY    -500.4127
      XYYY    -154.8177   YYYY   -2363.4860   XXXZ    -249.1767
      XXYZ     -36.1376   XYYZ    -205.7225   YYYZ    -614.6203
      XXZZ   -1689.7719   XYZZ    -227.8513   YYZZ   -2279.0776
      XZZZ    -470.6091   YZZZ   -1247.3783   ZZZZ   -8277.2352
    5th-Order Moments (Debye-Ang^4)
       500     188.5371    410     142.1408    320     161.5835
       230     339.8243    140     626.1345    050    2698.7368
       401     356.7233    311     404.5287    221      85.0330
       131     625.6731    041     820.9058    302    1103.9670
       212     560.1854    122     896.2650    032    2309.3488
       203     780.6225    113    1305.5787    023    3520.9214
       104    3062.3710    014    8299.8822    005    5132.3276
 -----------------------------------------------------------------
 -----------------------------------------------------------------
                 RPA Excited-State Multipoles, State   11   
                  LMN = < X^L Y^M Z^N >
 -----------------------------------------------------------------
    Charge (ESU x 10^10)
                -0.0000
    Dipole Moment (Debye)
         X      -0.2699      Y      -5.0497      Z      -4.3302
       Tot       6.6576
    Quadrupole Moments (Debye-Ang)
        XX    -137.0330     XY       3.3770     YY    -110.3375
        XZ       1.4620     YZ     -17.3508     ZZ     -89.8473
    Octopole Moments (Debye-Ang^2)
       XXX      50.3239    XXY      -3.1497    XYY      23.2784
       YYY     -21.6734    XXZ       4.2832    XYZ      -5.7854
       YYZ       6.8608    XZZ      -0.3727    YZZ     -37.0282
       ZZZ    -172.7389
    Hexadecapole Moments (Debye-Ang^3)
      XXXX    -249.9946   XXXY    -148.3129   XXYY    -480.8571
      XYYY     -83.4254   YYYY   -2189.7202   XXXZ    -234.8710
      XXYZ       3.3241   XYYZ     -94.3582   YYYZ    -269.0192
      XXZZ   -1639.5288   XYZZ     -42.7346   YYZZ   -1856.7847
      XZZZ    -131.9208   YZZZ    -318.7757   ZZZZ   -6795.9259
    5th-Order Moments (Debye-Ang^4)
       500     184.6283    410     130.7739    320     132.8965
       230     264.8038    140     411.1575    050    2040.1973
       401     335.4940    311     360.2664    221     -44.0895
       131     295.7973    041    -369.1239    302    1032.0386
       212     362.7589    122     370.1133    032     668.3670
       203     412.2710    113     389.4525    023     372.8044
       104    1354.4513    014    3061.2682    005   -5632.0941
 -----------------------------------------------------------------
 -----------------------------------------------------------------
                 RPA Excited-State Multipoles, State   12   
                  LMN = < X^L Y^M Z^N >
 -----------------------------------------------------------------
    Charge (ESU x 10^10)
                -0.0000
    Dipole Moment (Debye)
         X       1.8786      Y       2.8212      Z       7.6862
       Tot       8.4003
    Quadrupole Moments (Debye-Ang)
        XX    -137.6068     XY      -3.6239     YY    -127.4065
        XZ      -8.8397     YZ     -55.4988     ZZ    -105.7385
    Octopole Moments (Debye-Ang^2)
       XXX      51.5650    XXY       3.7053    XYY      43.7172
       YYY      42.1640    XXZ      13.0460    XYZ      27.3523
       YYZ     105.4904    XZZ      50.4065    YZZ     139.0430
       ZZZ     117.4942
    Hexadecapole Moments (Debye-Ang^3)
      XXXX    -248.9649   XXXY    -155.0062   XXYY    -499.3957
      XYYY    -145.0090   YYYY   -2359.7186   XXXZ    -241.3825
      XXYZ     -29.1787   XYYZ    -188.4412   YYYZ    -574.8460
      XXZZ   -1664.9828   XYZZ    -199.9862   YYZZ   -2252.4296
      XZZZ    -385.5295   YZZZ   -1201.0274   ZZZZ   -7372.3726
    5th-Order Moments (Debye-Ang^4)
       500     183.0044    410     137.5022    320     154.3304
       230     327.1450    140     598.9826    050    2626.4934
       401     339.3184    311     391.8791    221      48.8561
       131     577.8073    041     516.6186    302    1067.8515
       212     516.3085    122     813.6860    032    2058.9514
       203     638.8208    113    1159.7148    023    2614.4456
       104    2652.2329    014    7382.4997    005    2185.9984
 -----------------------------------------------------------------
 -----------------------------------------------------------------
                 RPA Excited-State Multipoles, State   13   
                  LMN = < X^L Y^M Z^N >
 -----------------------------------------------------------------
    Charge (ESU x 10^10)
                -0.0000
    Dipole Moment (Debye)
         X       2.2348      Y       4.8893      Z       5.5685
       Tot       7.7400
    Quadrupole Moments (Debye-Ang)
        XX    -137.9209     XY      -3.5387     YY    -126.5277
        XZ      -9.9702     YZ     -57.9530     ZZ    -128.2530
    Octopole Moments (Debye-Ang^2)
       XXX      52.6266    XXY       5.2337    XYY      44.8071
       YYY      52.4706    XXZ      13.1388    XYZ      27.8013
       YYZ     100.4850    XZZ      55.3872    YZZ     144.9243
       ZZZ     110.6095
    Hexadecapole Moments (Debye-Ang^3)
      XXXX    -251.1101   XXXY    -155.5945   XXYY    -500.1079
      XYYY    -144.0832   YYYY   -2359.0595   XXXZ    -245.4335
      XXYZ     -33.2123   XYYZ    -191.1021   YYYZ    -586.4092
      XXZZ   -1682.3933   XYZZ    -203.2940   YYZZ   -2297.6671
      XZZZ    -409.9473   YZZZ   -1217.2235   ZZZZ   -7950.4886
    5th-Order Moments (Debye-Ang^4)
       500     189.3561    410     142.7011    320     159.1496
       230     337.1166    140     608.4527    050    2721.4026
       401     345.6391    311     396.5167    221      50.6038
       131     581.0065    041     498.5097    302    1086.5628
       212     530.6332    122     824.5687    032    2102.0943
       203     669.5769    113    1174.4495    023    2625.2871
       104    2772.5779    014    7428.2322    005    2403.8613
 -----------------------------------------------------------------
 -----------------------------------------------------------------
                 RPA Excited-State Multipoles, State   14   
                  LMN = < X^L Y^M Z^N >
 -----------------------------------------------------------------
    Charge (ESU x 10^10)
                -0.0000
    Dipole Moment (Debye)
         X       2.6875      Y       6.6031      Z       8.4004
       Tot      11.0178
    Quadrupole Moments (Debye-Ang)
        XX    -137.8050     XY      -2.1891     YY    -119.2674
        XZ     -10.7919     YZ     -54.9378     ZZ    -145.3172
    Octopole Moments (Debye-Ang^2)
       XXX      52.8000    XXY       6.2285    XYY      49.1864
       YYY      77.2917    XXZ      14.7240    XYZ      28.3671
       YYZ     112.2253    XZZ      60.6213    YZZ     144.3623
       ZZZ     190.0810
    Hexadecapole Moments (Debye-Ang^3)
      XXXX    -250.7254   XXXY    -153.6422   XXYY    -496.4186
      XYYY    -133.3909   YYYY   -2284.0904   XXXZ    -245.9905
      XXYZ     -31.5545   XYYZ    -194.0912   YYYZ    -582.9197
      XXZZ   -1692.1632   XYZZ    -207.1464   YYZZ   -2317.9958
      XZZZ    -437.5618   YZZZ   -1183.1388   ZZZZ   -8340.7065
    5th-Order Moments (Debye-Ang^4)
       500     187.1588    410     143.4718    320     163.2904
       230     351.4427    140     650.9758    050    2995.4202
       401     346.8903    311     395.9277    221      58.5910
       131     588.6292    041     591.3458    302    1091.2877
       212     530.8107    122     840.9480    032    2129.3617
       203     714.6402    113    1197.9080    023    2876.3882
       104    2909.9623    014    7518.9928    005    4100.8254
 -----------------------------------------------------------------
 Total job time:  5592.07s(wall), 76407.18s(cpu) 
 Fri Jan 31 02:33:34 2025

        *************************************************************
        *                                                           *
        *  Thank you very much for using Q-Chem.  Have a nice day.  *
        *                                                           *
        *************************************************************


