
Running Job 1 of 1 Petunidin_Q3_tddft_full.in
qchem Petunidin_Q3_tddft_full.in_2265824.0 /data/brussel/103/vsc10365/activedata/TDDFTAnthocyanidines/qchem2265824/ 1
/apps/brussel/RL8/skylake/software/Q-Chem/6.2.0/exe/qcprog.exe_s Petunidin_Q3_tddft_full.in_2265824.0 /data/brussel/103/vsc10365/activedata/TDDFTAnthocyanidines/qchem2265824/
                  Welcome to Q-Chem
     A Quantum Leap Into The Future Of Chemistry


 Q-Chem 6.2, Q-Chem, Inc., Pleasanton, CA (2024)

 License issued to: SRG Prof. Dr. Frank De Proft, Vrije Universiteit Brussel

 E. Epifanovsky,  A. T. B. Gilbert,  Xintian Feng,  Joonho Lee,  Yuezhi Mao,  
 N. Mardirossian,  P. Pokhilko,  A. White,  M. Wormit,  M. P. Coons,  
 A. L. Dempwolff,  Zhengting Gan,  D. Hait,  P. R. Horn,  L. D. Jacobson,  
 I. Kaliman,  J. Kussmann,  A. W. Lange,  Ka Un Lao,  D. S. Levine,  Jie Liu,  
 S. C. McKenzie,  A. F. Morrison,  K. D. Nanda,  F. Plasser,  D. R. Rehn,  
 M. L. Vidal,  Zhi-Qiang You,  Ying Zhu,  Huseyin Aksu,  B. Alam,  
 B. Albrecht,  A. Aldossary,  E. Alguire,  J. H. Andersen,  
 J. E. Arias-Martinez,  V. Athavale,  D. Barton,  K. Begam,  A. Behn,  
 N. Bellonzi,  Y. A. Bernard,  E. J. Berquist,  H. Burton,  A. Carreras,  
 K. Carter-Fenk,  Mathew Chow,  Romit Chakraborty,  Chandrima Chakravarty,  
 Junhan Chen,  A. D. Chien,  K. D. Closser,  V. Cofer-Shabica,  L. Cunha,  
 S. Dasgupta,  Jia Deng,  Joseph Dickinson,  M. de Wergifosse,  
 M. Diedenhofen,  Hainam Do,  Wenjie Dou,  S. Ehlert,  Po-Tung Fang,  
 S. Fatehi,  Qingguo Feng,  Jonathan Fetherolf,  T. Friedhoff,  
 Thomas Froitzheim,  Sarai Folkestad,  B. Ganoe,  J. Gayvert,  Qinghui Ge,  
 G. Gidofalvi,  M. Gimferrer,  M. Goldey,  Montgomery Gray,  J. Gomes,  
 C. Gonzalez-Espinoza,  S. Gulania,  A. Gunina,  J. A. Gyamfi,  
 M. W. D. Hanson-Heine,  P. H. P. Harbach,  A. W. Hauser,  M. F. Herbst,  
 M. Hernandez Vera,  M. Hodecker,  Z. C. Holden,  S. Houck,  Xunkun Huang,  
 Kerwin Hui,  B. C. Huynh,  K. Ikeda,  M. Ivanov,  Nayanthara K. Jayadev,  
 Hyunjun Ji,  Zuxin Jin,  Hanjie Jiang,  Subrata Jana,  B. Kaduk,  
 S. Kaehler,  R. Kang,  K. Khistyaev,  Jaehoon Kim,  Yongbin Kim,  
 P. Klunzinger,  Z. Koczor-Benda,  Joong Hoon Koh,  D. Kosenkov,  
 Saikiran Kotaru,  L. Koulias,  T. Kowalczyk,  C. M. Krauter,  K. Kue,  
 A. Kunitsa,  T. Kus,  A. Landau,  K. V. Lawler,  D. Lefrancois,  S. Lehtola,  
 Rain Li,  Shaozhi Li,  Tao E. Li,  Yi-Pei Li,  Jiashu Liang,  M. Liebenthal,  
 Hung-Hsuan Lin,  You-Sheng Lin,  Fenglai Liu,  Kuan-Yu Liu,  Xiao Liu,  
 M. Loipersberger,  A. Luenser,  C. Malbon,  Aniket Mandal,  Manisha,  
 A. Manjanath,  P. Manohar,  E. Mansoor,  S. F. Manzer,  Shan-Ping Mao,  
 A. V. Marenich,  T. Markovich,  S. Mason,  F. Matz,  S. A. Maurer,  
 Samuel May,  Alexandra McIsaac,  P. F. McLaughlin,  M. F. S. J. Menger,  
 J.-M. Mewes,  S. A. Mewes,  P. Morgante,  Mohammad Mostafanejad,  
 Madhubani Mukherjee,  J. W. Mullinax,  Quyen Nguyen,  Avik Kumar Ojha,  
 K. J. Oosterbaan,  Eno Paenurk,  Xiaoliang Pan,  G. Paran,  V. Parravicini,  
 Alexander C. Paul,  Suranjan K. Paul,  F. Pavosevic,  Zheng Pei,  S. Prager,  
 E. I. Proynov,  E. Ramos,  B. Rana,  A. E. Rask,  A. Rettig,  R. M. Richard,  
 F. Rob,  E. Rossomme,  T. Scheele,  M. Scheurer,  M. Schneider,  
 P. E. Schneider,  Tim K. Schramm,  N. Sergueev,  S. M. Sharada,  
 Hengyuan Shen,  W. Skomorowski,  D. W. Small,  C. J. Stein,  
 Alistair J. Sterling,  Yingli Su,  Yu-Chuan Su,  E. J. Sundstrom,  
 J. Talbot,  Zhen Tao,  J. Thirman,  Hung-Yi Tsai,  T. Tsuchimochi,  
 N. M. Tubman,  C. Utku,  S. P. Veccham,  O. Vydrov,  Rahel Weiss,  
 J. Wenzel,  Jonathan Wong,  J. Witte,  H. Wu,  Yanze Wu,  A. Yamada,  
 Chou-Hsun Yang,  Kun Yao,  S. Yeganeh,  S. R. Yost,  Qi Yu,  A. Zech,  
 F. Zeller,  Chongxiao Zhao,  Igor Ying Zhang,  Xing Zhang,  Yu Zhang,  
 D. Zuev,  A. Aspuru-Guzik,  A. T. Bell,  N. A. Besley,  K. B. Bravaya,  
 B. R. Brooks,  D. Casanova,  Jeng-Da Chai,  Hsing-Ta Chen,  S. Coriani,  
 C. J. Cramer,  A. E. DePrince, III,  R. A. DiStasio Jr.,  A. Dreuw,  
 B. D. Dunietz,  T. R. Furlani,  W. A. Goddard III,  S. Grimme,  
 S. Hammes-Schiffer,  T. Head-Gordon,  W. J. Hehre,  Chao-Ping Hsu,  
 T.-C. Jagau,  Yousung Jung,  A. Klamt,  Jing Kong,  D. S. Lambrecht,  
 Xiangyuan Li,  WanZhen Liang,  N. J. Mayhall,  C. W. McCurdy,  J. B. Neaton,  
 T. Neudecker,  C. Ochsenfeld,  J. A. Parkhill,  R. Peverati,  
 V. A. Rassolov,  Haisheng Ren,  Yihan Shao,  L. V. Slipchenko,  
 R. P. Steele,  J. E. Subotnik,  A. J. W. Thom,  A. Tkatchenko,  
 D. G. Truhlar,  T. Van Voorhis,  Fan Wang,  T. A. Wesolowski,  K. B. Whaley,  
 H. L. Woodcock III,  P. M. Zimmerman,  S. Faraji,  P. M. W. Gill,  
 M. Head-Gordon,  J. M. Herbert,  A. I. Krylov

 Contributors to earlier versions of Q-Chem not listed above: 
 R. D. Adamson,  B. Austin,  R. Baer,  J. Baker,  G. J. O. Beran,  
 K. Brandhorst,  S. T. Brown,  E. F. C. Byrd,  Arup K. Chakraborty,  
 G. K. L. Chan,  Chun-Min Chang,  Yunqing Chen,  C.-L. Cheng,  
 Siu Hung Chien,  D. M. Chipman,  D. L. Crittenden,  H. Dachsel,  
 R. J. Doerksen,  A. D. Dutoi,  R. G. Edgar,  J. Fosso-Tande,  
 L. Fusti-Molnar,  D. Ghosh,  A. Ghysels,  A. Golubeva-Zadorozhnaya,  
 J. Gonthier,  M. S. Gordon,  S. R. Gwaltney,  G. Hawkins,  J. E. Herr,  
 A. Heyden,  S. Hirata,  E. G. Hohenstein,  G. Kedziora,  F. J. Keil,  
 C. Kelley,  Jihan Kim,  R. A. King,  R. Z. Khaliullin,  P. P. Korambath,  
 W. Kurlancheek,  A. Laurent,  A. M. Lee,  M. S. Lee,  S. V. Levchenko,  
 Ching Yeh Lin,  D. Liotard,  E. Livshits,  R. C. Lochan,  I. Lotan,  
 L. A. Martinez-Martinez,  P. E. Maslen,  N. Nair,  D. P. O'Neill,  
 D. Neuhauser,  E. Neuscamman,  C. M. Oana,  R. Olivares-Amaya,  R. Olson,  
 T. M. Perrine,  B. Peters,  P. A. Pieniazek,  A. Prociuk,  Y. M. Rhee,  
 J. Ritchie,  M. A. Rohrdanz,  E. Rosta,  N. J. Russ,  H. F. Schaefer III,  
 M. W. Schmidt,  N. E. Schultz,  S. Sharma,  N. Shenvi,  C. D. Sherrill,  
 A. C. Simmonett,  A. Sodt,  T. Stein,  D. Stuck,  K. S. Thanthiriwatte,  
 V. Vanovschi,  L. Vogt,  Tao Wang,  A. Warshel,  M. A. Watson,  
 C. F. Williams,  Q. Wu,  X. Xu,  Jun Yang,  W. Zhang,  Yan Zhao

   Please cite Q-Chem as follows:
  "Software for the frontiers of quantum chemistry:
   An overview of developments in the Q-Chem 5 package"
   J. Chem. Phys. 155, 084801 (2021)
   https://doi.org/10.1063/5.0055522 (open access)

 Q-Chem 6.2.0 for Intel X86 EM64T Linux

 Parts of Q-Chem use Armadillo 9.900.5 (Nocturnal Misbehaviour).
 http://arma.sourceforge.net/

 Q-Chem begins on Fri Jan 31 00:52:45 2025  

 Host: 
0

     Scratch files written to /data/brussel/103/vsc10365/activedata/TDDFTAnthocyanidines/qchem2265824//
 May224 |scratch|qcdevops|jenkins|workspace|build_RNUM -1
 Processing $rem in /apps/brussel/RL8/skylake/software/Q-Chem/6.2.0/config/preferences:
 Processing $rem in /user/brussel/103/vsc10365/.qchemrc:
 Symmetry turned off for PCM/SM12/SMD calculation

 Checking the input file for inconsistencies... 	...done.

--------------------------------------------------------------
User input:
--------------------------------------------------------------
$comment
TDDFT calculation of petunidin Q3 structure
nprocs=16
mem=64gb
$end

$molecule
0 1
C   -0.2703699   -1.6574489   -4.1410216
C   -0.0646301   -0.5123882   -4.8977692
C    0.1315015    0.7503401   -4.2941967
C    0.1034772    0.7639952   -2.8233826
C   -0.1163221   -0.4493393   -2.1172113
C   -0.3034047   -1.6585103   -2.7359209
C    0.2901186    1.9097919   -2.0841245
C    0.2597936    1.9014744   -0.6862871
C    0.0294438    0.7070799   -0.0191160
O   -0.1496173   -0.4105182   -0.7588337
C   -0.0329802    0.4551119    1.4125362
C    0.0974479   -0.8700670    1.8737480
C    0.0254513   -1.1403271    3.2276759
C   -0.1844085   -0.1014205    4.1466355
C   -0.3196722    1.2055039    3.6883497
C   -0.2400528    1.4895576    2.3347895
O   -0.4560951   -2.8705827   -4.7332824
H   -0.0520993   -0.5822847   -5.9791184
O    0.3238150    1.8219079   -4.9489530
H   -0.4707715   -2.5676694   -2.1777732
H    0.4754196    2.8478318   -2.5952853
O    0.4768274    3.0439736    0.0288851
H    0.2637221   -1.6709252    1.1726243
O    0.1461246   -2.3728158    3.7982105
O   -0.2626329   -0.3286322    5.4877909
O   -0.5354009    2.2375414    4.5680213
H   -0.3633037    2.5114245    2.0170146
H   -0.4134362   -2.7805089   -5.6966663
C    0.3542043   -3.5022720    2.9423092
H   -0.5797487    1.8906327    5.4711376
H    0.4178596   -4.3638740    3.6016598
H    1.2850982   -3.3976932    2.3823239
H   -0.4838859   -3.6263315    2.2544388
H   -0.1545650   -1.2774284    5.6589351
H    0.6622921    3.7748110   -0.5785034
$end

$rem
BASIS  =  def2-ma-TZVP
MEM_STATIC  =  2000
MEM_TOTAL  =  64000
METHOD  =  CAM-B3LYP
SOLVENT_METHOD = pcm
SYMMETRY_IGNORE  =  1
CIS_N_ROOTS = 7
CIS_SINGLETS = true
CIS_TRIPLETS = true
CISTR_PRINT = true
RPA = true
PRINT_ORBITALS = true
SCF_PRINT = 1
SCF_FINAL_PRINT = 2
PRINT_GENERAL_BASIS = true
CISTR_PRINT = true
PRINT_RADII_GYRE = true
MULTIPOLE_ORDER = 5
CIS_AMPL_PRINT = 5
CIS_AMPL_ANAL = true
STATE_ANALYSIS = true
$end

$pcm
Theory   CPCM
Method   SWIG
Solver   Inversion
Radii    Bondi
$end

$solvent
Dielectric         78.39
OpticalDielectric  1.777849
$end


--------------------------------------------------------------
 ----------------------------------------------------------------
             Standard Nuclear Orientation (Angstroms)
    I     Atom           X                Y                Z
 ----------------------------------------------------------------
    1      C      -0.2703699000    -1.6574489000    -4.1410216000
    2      C      -0.0646301000    -0.5123882000    -4.8977692000
    3      C       0.1315015000     0.7503401000    -4.2941967000
    4      C       0.1034772000     0.7639952000    -2.8233826000
    5      C      -0.1163221000    -0.4493393000    -2.1172113000
    6      C      -0.3034047000    -1.6585103000    -2.7359209000
    7      C       0.2901186000     1.9097919000    -2.0841245000
    8      C       0.2597936000     1.9014744000    -0.6862871000
    9      C       0.0294438000     0.7070799000    -0.0191160000
   10      O      -0.1496173000    -0.4105182000    -0.7588337000
   11      C      -0.0329802000     0.4551119000     1.4125362000
   12      C       0.0974479000    -0.8700670000     1.8737480000
   13      C       0.0254513000    -1.1403271000     3.2276759000
   14      C      -0.1844085000    -0.1014205000     4.1466355000
   15      C      -0.3196722000     1.2055039000     3.6883497000
   16      C      -0.2400528000     1.4895576000     2.3347895000
   17      O      -0.4560951000    -2.8705827000    -4.7332824000
   18      H      -0.0520993000    -0.5822847000    -5.9791184000
   19      O       0.3238150000     1.8219079000    -4.9489530000
   20      H      -0.4707715000    -2.5676694000    -2.1777732000
   21      H       0.4754196000     2.8478318000    -2.5952853000
   22      O       0.4768274000     3.0439736000     0.0288851000
   23      H       0.2637221000    -1.6709252000     1.1726243000
   24      O       0.1461246000    -2.3728158000     3.7982105000
   25      O      -0.2626329000    -0.3286322000     5.4877909000
   26      O      -0.5354009000     2.2375414000     4.5680213000
   27      H      -0.3633037000     2.5114245000     2.0170146000
   28      H      -0.4134362000    -2.7805089000    -5.6966663000
   29      C       0.3542043000    -3.5022720000     2.9423092000
   30      H      -0.5797487000     1.8906327000     5.4711376000
   31      H       0.4178596000    -4.3638740000     3.6016598000
   32      H       1.2850982000    -3.3976932000     2.3823239000
   33      H      -0.4838859000    -3.6263315000     2.2544388000
   34      H      -0.1545650000    -1.2774284000     5.6589351000
   35      H       0.6622921000     3.7748110000    -0.5785034000
 ----------------------------------------------------------------
 Nuclear Repulsion Energy =        1844.95335901 hartrees
 There are       82 alpha and       82 beta electrons
 Requested basis set is def2-ma-TZVP
 Basis set in general basis input format:
-----------------------------------------------------------------------
$basis
C    0
S    6    1.000000
   1.35753497E+04    2.22458144E-04 
   2.03523337E+03    1.72327383E-03 
   4.63225624E+02    8.92557153E-03 
   1.31200196E+02    3.57279845E-02 
   4.28530159E+01    1.10762599E-01 
   1.55841858E+01    2.42956276E-01 
S    2    1.000000
   6.20671385E+00    4.14402634E-01 
   2.57648965E+00    2.37449687E-01 
S    1    1.000000
   5.76963394E-01    1.00000000E+00 
S    1    1.000000
   2.29728314E-01    1.00000000E+00 
S    1    1.000000
   9.51644400E-02    1.00000000E+00 
S    1    1.000000
   4.84754014E-02    1.00000000E+00 
P    4    1.000000
   3.46972322E+01    5.33336578E-03 
   7.95826228E+00    3.58641091E-02 
   2.37808269E+00    1.42158733E-01 
   8.14332082E-01    3.42704718E-01 
P    1    1.000000
   2.88875473E-01    4.64458224E-01 
P    1    1.000000
   1.00568237E-01    2.49557899E-01 
D    1    1.000000
   1.09700000E+00    1.00000000E+00 
D    1    1.000000
   3.18000000E-01    1.00000000E+00 
F    1    1.000000
   7.61000000E-01    1.00000000E+00 
****
C    0
S    6    1.000000
   1.35753497E+04    2.22458144E-04 
   2.03523337E+03    1.72327383E-03 
   4.63225624E+02    8.92557153E-03 
   1.31200196E+02    3.57279845E-02 
   4.28530159E+01    1.10762599E-01 
   1.55841858E+01    2.42956276E-01 
S    2    1.000000
   6.20671385E+00    4.14402634E-01 
   2.57648965E+00    2.37449687E-01 
S    1    1.000000
   5.76963394E-01    1.00000000E+00 
S    1    1.000000
   2.29728314E-01    1.00000000E+00 
S    1    1.000000
   9.51644400E-02    1.00000000E+00 
S    1    1.000000
   4.84754014E-02    1.00000000E+00 
P    4    1.000000
   3.46972322E+01    5.33336578E-03 
   7.95826228E+00    3.58641091E-02 
   2.37808269E+00    1.42158733E-01 
   8.14332082E-01    3.42704718E-01 
P    1    1.000000
   2.88875473E-01    4.64458224E-01 
P    1    1.000000
   1.00568237E-01    2.49557899E-01 
D    1    1.000000
   1.09700000E+00    1.00000000E+00 
D    1    1.000000
   3.18000000E-01    1.00000000E+00 
F    1    1.000000
   7.61000000E-01    1.00000000E+00 
****
C    0
S    6    1.000000
   1.35753497E+04    2.22458144E-04 
   2.03523337E+03    1.72327383E-03 
   4.63225624E+02    8.92557153E-03 
   1.31200196E+02    3.57279845E-02 
   4.28530159E+01    1.10762599E-01 
   1.55841858E+01    2.42956276E-01 
S    2    1.000000
   6.20671385E+00    4.14402634E-01 
   2.57648965E+00    2.37449687E-01 
S    1    1.000000
   5.76963394E-01    1.00000000E+00 
S    1    1.000000
   2.29728314E-01    1.00000000E+00 
S    1    1.000000
   9.51644400E-02    1.00000000E+00 
S    1    1.000000
   4.84754014E-02    1.00000000E+00 
P    4    1.000000
   3.46972322E+01    5.33336578E-03 
   7.95826228E+00    3.58641091E-02 
   2.37808269E+00    1.42158733E-01 
   8.14332082E-01    3.42704718E-01 
P    1    1.000000
   2.88875473E-01    4.64458224E-01 
P    1    1.000000
   1.00568237E-01    2.49557899E-01 
D    1    1.000000
   1.09700000E+00    1.00000000E+00 
D    1    1.000000
   3.18000000E-01    1.00000000E+00 
F    1    1.000000
   7.61000000E-01    1.00000000E+00 
****
C    0
S    6    1.000000
   1.35753497E+04    2.22458144E-04 
   2.03523337E+03    1.72327383E-03 
   4.63225624E+02    8.92557153E-03 
   1.31200196E+02    3.57279845E-02 
   4.28530159E+01    1.10762599E-01 
   1.55841858E+01    2.42956276E-01 
S    2    1.000000
   6.20671385E+00    4.14402634E-01 
   2.57648965E+00    2.37449687E-01 
S    1    1.000000
   5.76963394E-01    1.00000000E+00 
S    1    1.000000
   2.29728314E-01    1.00000000E+00 
S    1    1.000000
   9.51644400E-02    1.00000000E+00 
S    1    1.000000
   4.84754014E-02    1.00000000E+00 
P    4    1.000000
   3.46972322E+01    5.33336578E-03 
   7.95826228E+00    3.58641091E-02 
   2.37808269E+00    1.42158733E-01 
   8.14332082E-01    3.42704718E-01 
P    1    1.000000
   2.88875473E-01    4.64458224E-01 
P    1    1.000000
   1.00568237E-01    2.49557899E-01 
D    1    1.000000
   1.09700000E+00    1.00000000E+00 
D    1    1.000000
   3.18000000E-01    1.00000000E+00 
F    1    1.000000
   7.61000000E-01    1.00000000E+00 
****
C    0
S    6    1.000000
   1.35753497E+04    2.22458144E-04 
   2.03523337E+03    1.72327383E-03 
   4.63225624E+02    8.92557153E-03 
   1.31200196E+02    3.57279845E-02 
   4.28530159E+01    1.10762599E-01 
   1.55841858E+01    2.42956276E-01 
S    2    1.000000
   6.20671385E+00    4.14402634E-01 
   2.57648965E+00    2.37449687E-01 
S    1    1.000000
   5.76963394E-01    1.00000000E+00 
S    1    1.000000
   2.29728314E-01    1.00000000E+00 
S    1    1.000000
   9.51644400E-02    1.00000000E+00 
S    1    1.000000
   4.84754014E-02    1.00000000E+00 
P    4    1.000000
   3.46972322E+01    5.33336578E-03 
   7.95826228E+00    3.58641091E-02 
   2.37808269E+00    1.42158733E-01 
   8.14332082E-01    3.42704718E-01 
P    1    1.000000
   2.88875473E-01    4.64458224E-01 
P    1    1.000000
   1.00568237E-01    2.49557899E-01 
D    1    1.000000
   1.09700000E+00    1.00000000E+00 
D    1    1.000000
   3.18000000E-01    1.00000000E+00 
F    1    1.000000
   7.61000000E-01    1.00000000E+00 
****
C    0
S    6    1.000000
   1.35753497E+04    2.22458144E-04 
   2.03523337E+03    1.72327383E-03 
   4.63225624E+02    8.92557153E-03 
   1.31200196E+02    3.57279845E-02 
   4.28530159E+01    1.10762599E-01 
   1.55841858E+01    2.42956276E-01 
S    2    1.000000
   6.20671385E+00    4.14402634E-01 
   2.57648965E+00    2.37449687E-01 
S    1    1.000000
   5.76963394E-01    1.00000000E+00 
S    1    1.000000
   2.29728314E-01    1.00000000E+00 
S    1    1.000000
   9.51644400E-02    1.00000000E+00 
S    1    1.000000
   4.84754014E-02    1.00000000E+00 
P    4    1.000000
   3.46972322E+01    5.33336578E-03 
   7.95826228E+00    3.58641091E-02 
   2.37808269E+00    1.42158733E-01 
   8.14332082E-01    3.42704718E-01 
P    1    1.000000
   2.88875473E-01    4.64458224E-01 
P    1    1.000000
   1.00568237E-01    2.49557899E-01 
D    1    1.000000
   1.09700000E+00    1.00000000E+00 
D    1    1.000000
   3.18000000E-01    1.00000000E+00 
F    1    1.000000
   7.61000000E-01    1.00000000E+00 
****
C    0
S    6    1.000000
   1.35753497E+04    2.22458144E-04 
   2.03523337E+03    1.72327383E-03 
   4.63225624E+02    8.92557153E-03 
   1.31200196E+02    3.57279845E-02 
   4.28530159E+01    1.10762599E-01 
   1.55841858E+01    2.42956276E-01 
S    2    1.000000
   6.20671385E+00    4.14402634E-01 
   2.57648965E+00    2.37449687E-01 
S    1    1.000000
   5.76963394E-01    1.00000000E+00 
S    1    1.000000
   2.29728314E-01    1.00000000E+00 
S    1    1.000000
   9.51644400E-02    1.00000000E+00 
S    1    1.000000
   4.84754014E-02    1.00000000E+00 
P    4    1.000000
   3.46972322E+01    5.33336578E-03 
   7.95826228E+00    3.58641091E-02 
   2.37808269E+00    1.42158733E-01 
   8.14332082E-01    3.42704718E-01 
P    1    1.000000
   2.88875473E-01    4.64458224E-01 
P    1    1.000000
   1.00568237E-01    2.49557899E-01 
D    1    1.000000
   1.09700000E+00    1.00000000E+00 
D    1    1.000000
   3.18000000E-01    1.00000000E+00 
F    1    1.000000
   7.61000000E-01    1.00000000E+00 
****
C    0
S    6    1.000000
   1.35753497E+04    2.22458144E-04 
   2.03523337E+03    1.72327383E-03 
   4.63225624E+02    8.92557153E-03 
   1.31200196E+02    3.57279845E-02 
   4.28530159E+01    1.10762599E-01 
   1.55841858E+01    2.42956276E-01 
S    2    1.000000
   6.20671385E+00    4.14402634E-01 
   2.57648965E+00    2.37449687E-01 
S    1    1.000000
   5.76963394E-01    1.00000000E+00 
S    1    1.000000
   2.29728314E-01    1.00000000E+00 
S    1    1.000000
   9.51644400E-02    1.00000000E+00 
S    1    1.000000
   4.84754014E-02    1.00000000E+00 
P    4    1.000000
   3.46972322E+01    5.33336578E-03 
   7.95826228E+00    3.58641091E-02 
   2.37808269E+00    1.42158733E-01 
   8.14332082E-01    3.42704718E-01 
P    1    1.000000
   2.88875473E-01    4.64458224E-01 
P    1    1.000000
   1.00568237E-01    2.49557899E-01 
D    1    1.000000
   1.09700000E+00    1.00000000E+00 
D    1    1.000000
   3.18000000E-01    1.00000000E+00 
F    1    1.000000
   7.61000000E-01    1.00000000E+00 
****
C    0
S    6    1.000000
   1.35753497E+04    2.22458144E-04 
   2.03523337E+03    1.72327383E-03 
   4.63225624E+02    8.92557153E-03 
   1.31200196E+02    3.57279845E-02 
   4.28530159E+01    1.10762599E-01 
   1.55841858E+01    2.42956276E-01 
S    2    1.000000
   6.20671385E+00    4.14402634E-01 
   2.57648965E+00    2.37449687E-01 
S    1    1.000000
   5.76963394E-01    1.00000000E+00 
S    1    1.000000
   2.29728314E-01    1.00000000E+00 
S    1    1.000000
   9.51644400E-02    1.00000000E+00 
S    1    1.000000
   4.84754014E-02    1.00000000E+00 
P    4    1.000000
   3.46972322E+01    5.33336578E-03 
   7.95826228E+00    3.58641091E-02 
   2.37808269E+00    1.42158733E-01 
   8.14332082E-01    3.42704718E-01 
P    1    1.000000
   2.88875473E-01    4.64458224E-01 
P    1    1.000000
   1.00568237E-01    2.49557899E-01 
D    1    1.000000
   1.09700000E+00    1.00000000E+00 
D    1    1.000000
   3.18000000E-01    1.00000000E+00 
F    1    1.000000
   7.61000000E-01    1.00000000E+00 
****
O    0
S    6    1.000000
   2.70323826E+04    2.17263025E-04 
   4.05238714E+03    1.68386622E-03 
   9.22327227E+02    8.73956163E-03 
   2.61240710E+02    3.52399688E-02 
   8.53546414E+01    1.11535191E-01 
   3.10350352E+01    2.55889540E-01 
S    2    1.000000
   1.22608607E+01    3.97687309E-01 
   4.99870760E+00    2.46278494E-01 
S    1    1.000000
   1.17031082E+00    1.00000000E+00 
S    1    1.000000
   4.64747410E-01    1.00000000E+00 
S    1    1.000000
   1.85045364E-01    1.00000000E+00 
S    1    1.000000
   7.02880263E-02    1.00000000E+00 
P    4    1.000000
   6.32749548E+01    6.06851034E-03 
   1.46270494E+01    4.19125758E-02 
   4.45012235E+00    1.61538411E-01 
   1.52757996E+00    3.57069513E-01 
P    1    1.000000
   5.29351179E-01    4.47942075E-01 
P    1    1.000000
   1.74784213E-01    2.44460697E-01 
P    1    1.000000
   5.11127457E-02    1.00000000E+00 
D    1    1.000000
   2.31400000E+00    1.00000000E+00 
D    1    1.000000
   6.45000000E-01    1.00000000E+00 
F    1    1.000000
   1.42800000E+00    1.00000000E+00 
****
C    0
S    6    1.000000
   1.35753497E+04    2.22458144E-04 
   2.03523337E+03    1.72327383E-03 
   4.63225624E+02    8.92557153E-03 
   1.31200196E+02    3.57279845E-02 
   4.28530159E+01    1.10762599E-01 
   1.55841858E+01    2.42956276E-01 
S    2    1.000000
   6.20671385E+00    4.14402634E-01 
   2.57648965E+00    2.37449687E-01 
S    1    1.000000
   5.76963394E-01    1.00000000E+00 
S    1    1.000000
   2.29728314E-01    1.00000000E+00 
S    1    1.000000
   9.51644400E-02    1.00000000E+00 
S    1    1.000000
   4.84754014E-02    1.00000000E+00 
P    4    1.000000
   3.46972322E+01    5.33336578E-03 
   7.95826228E+00    3.58641091E-02 
   2.37808269E+00    1.42158733E-01 
   8.14332082E-01    3.42704718E-01 
P    1    1.000000
   2.88875473E-01    4.64458224E-01 
P    1    1.000000
   1.00568237E-01    2.49557899E-01 
D    1    1.000000
   1.09700000E+00    1.00000000E+00 
D    1    1.000000
   3.18000000E-01    1.00000000E+00 
F    1    1.000000
   7.61000000E-01    1.00000000E+00 
****
C    0
S    6    1.000000
   1.35753497E+04    2.22458144E-04 
   2.03523337E+03    1.72327383E-03 
   4.63225624E+02    8.92557153E-03 
   1.31200196E+02    3.57279845E-02 
   4.28530159E+01    1.10762599E-01 
   1.55841858E+01    2.42956276E-01 
S    2    1.000000
   6.20671385E+00    4.14402634E-01 
   2.57648965E+00    2.37449687E-01 
S    1    1.000000
   5.76963394E-01    1.00000000E+00 
S    1    1.000000
   2.29728314E-01    1.00000000E+00 
S    1    1.000000
   9.51644400E-02    1.00000000E+00 
S    1    1.000000
   4.84754014E-02    1.00000000E+00 
P    4    1.000000
   3.46972322E+01    5.33336578E-03 
   7.95826228E+00    3.58641091E-02 
   2.37808269E+00    1.42158733E-01 
   8.14332082E-01    3.42704718E-01 
P    1    1.000000
   2.88875473E-01    4.64458224E-01 
P    1    1.000000
   1.00568237E-01    2.49557899E-01 
D    1    1.000000
   1.09700000E+00    1.00000000E+00 
D    1    1.000000
   3.18000000E-01    1.00000000E+00 
F    1    1.000000
   7.61000000E-01    1.00000000E+00 
****
C    0
S    6    1.000000
   1.35753497E+04    2.22458144E-04 
   2.03523337E+03    1.72327383E-03 
   4.63225624E+02    8.92557153E-03 
   1.31200196E+02    3.57279845E-02 
   4.28530159E+01    1.10762599E-01 
   1.55841858E+01    2.42956276E-01 
S    2    1.000000
   6.20671385E+00    4.14402634E-01 
   2.57648965E+00    2.37449687E-01 
S    1    1.000000
   5.76963394E-01    1.00000000E+00 
S    1    1.000000
   2.29728314E-01    1.00000000E+00 
S    1    1.000000
   9.51644400E-02    1.00000000E+00 
S    1    1.000000
   4.84754014E-02    1.00000000E+00 
P    4    1.000000
   3.46972322E+01    5.33336578E-03 
   7.95826228E+00    3.58641091E-02 
   2.37808269E+00    1.42158733E-01 
   8.14332082E-01    3.42704718E-01 
P    1    1.000000
   2.88875473E-01    4.64458224E-01 
P    1    1.000000
   1.00568237E-01    2.49557899E-01 
D    1    1.000000
   1.09700000E+00    1.00000000E+00 
D    1    1.000000
   3.18000000E-01    1.00000000E+00 
F    1    1.000000
   7.61000000E-01    1.00000000E+00 
****
C    0
S    6    1.000000
   1.35753497E+04    2.22458144E-04 
   2.03523337E+03    1.72327383E-03 
   4.63225624E+02    8.92557153E-03 
   1.31200196E+02    3.57279845E-02 
   4.28530159E+01    1.10762599E-01 
   1.55841858E+01    2.42956276E-01 
S    2    1.000000
   6.20671385E+00    4.14402634E-01 
   2.57648965E+00    2.37449687E-01 
S    1    1.000000
   5.76963394E-01    1.00000000E+00 
S    1    1.000000
   2.29728314E-01    1.00000000E+00 
S    1    1.000000
   9.51644400E-02    1.00000000E+00 
S    1    1.000000
   4.84754014E-02    1.00000000E+00 
P    4    1.000000
   3.46972322E+01    5.33336578E-03 
   7.95826228E+00    3.58641091E-02 
   2.37808269E+00    1.42158733E-01 
   8.14332082E-01    3.42704718E-01 
P    1    1.000000
   2.88875473E-01    4.64458224E-01 
P    1    1.000000
   1.00568237E-01    2.49557899E-01 
D    1    1.000000
   1.09700000E+00    1.00000000E+00 
D    1    1.000000
   3.18000000E-01    1.00000000E+00 
F    1    1.000000
   7.61000000E-01    1.00000000E+00 
****
C    0
S    6    1.000000
   1.35753497E+04    2.22458144E-04 
   2.03523337E+03    1.72327383E-03 
   4.63225624E+02    8.92557153E-03 
   1.31200196E+02    3.57279845E-02 
   4.28530159E+01    1.10762599E-01 
   1.55841858E+01    2.42956276E-01 
S    2    1.000000
   6.20671385E+00    4.14402634E-01 
   2.57648965E+00    2.37449687E-01 
S    1    1.000000
   5.76963394E-01    1.00000000E+00 
S    1    1.000000
   2.29728314E-01    1.00000000E+00 
S    1    1.000000
   9.51644400E-02    1.00000000E+00 
S    1    1.000000
   4.84754014E-02    1.00000000E+00 
P    4    1.000000
   3.46972322E+01    5.33336578E-03 
   7.95826228E+00    3.58641091E-02 
   2.37808269E+00    1.42158733E-01 
   8.14332082E-01    3.42704718E-01 
P    1    1.000000
   2.88875473E-01    4.64458224E-01 
P    1    1.000000
   1.00568237E-01    2.49557899E-01 
D    1    1.000000
   1.09700000E+00    1.00000000E+00 
D    1    1.000000
   3.18000000E-01    1.00000000E+00 
F    1    1.000000
   7.61000000E-01    1.00000000E+00 
****
C    0
S    6    1.000000
   1.35753497E+04    2.22458144E-04 
   2.03523337E+03    1.72327383E-03 
   4.63225624E+02    8.92557153E-03 
   1.31200196E+02    3.57279845E-02 
   4.28530159E+01    1.10762599E-01 
   1.55841858E+01    2.42956276E-01 
S    2    1.000000
   6.20671385E+00    4.14402634E-01 
   2.57648965E+00    2.37449687E-01 
S    1    1.000000
   5.76963394E-01    1.00000000E+00 
S    1    1.000000
   2.29728314E-01    1.00000000E+00 
S    1    1.000000
   9.51644400E-02    1.00000000E+00 
S    1    1.000000
   4.84754014E-02    1.00000000E+00 
P    4    1.000000
   3.46972322E+01    5.33336578E-03 
   7.95826228E+00    3.58641091E-02 
   2.37808269E+00    1.42158733E-01 
   8.14332082E-01    3.42704718E-01 
P    1    1.000000
   2.88875473E-01    4.64458224E-01 
P    1    1.000000
   1.00568237E-01    2.49557899E-01 
D    1    1.000000
   1.09700000E+00    1.00000000E+00 
D    1    1.000000
   3.18000000E-01    1.00000000E+00 
F    1    1.000000
   7.61000000E-01    1.00000000E+00 
****
O    0
S    6    1.000000
   2.70323826E+04    2.17263025E-04 
   4.05238714E+03    1.68386622E-03 
   9.22327227E+02    8.73956163E-03 
   2.61240710E+02    3.52399688E-02 
   8.53546414E+01    1.11535191E-01 
   3.10350352E+01    2.55889540E-01 
S    2    1.000000
   1.22608607E+01    3.97687309E-01 
   4.99870760E+00    2.46278494E-01 
S    1    1.000000
   1.17031082E+00    1.00000000E+00 
S    1    1.000000
   4.64747410E-01    1.00000000E+00 
S    1    1.000000
   1.85045364E-01    1.00000000E+00 
S    1    1.000000
   7.02880263E-02    1.00000000E+00 
P    4    1.000000
   6.32749548E+01    6.06851034E-03 
   1.46270494E+01    4.19125758E-02 
   4.45012235E+00    1.61538411E-01 
   1.52757996E+00    3.57069513E-01 
P    1    1.000000
   5.29351179E-01    4.47942075E-01 
P    1    1.000000
   1.74784213E-01    2.44460697E-01 
P    1    1.000000
   5.11127457E-02    1.00000000E+00 
D    1    1.000000
   2.31400000E+00    1.00000000E+00 
D    1    1.000000
   6.45000000E-01    1.00000000E+00 
F    1    1.000000
   1.42800000E+00    1.00000000E+00 
****
H    0
S    3    1.000000
   3.40613410E+01    6.02519780E-03 
   5.12357460E+00    4.50210940E-02 
   1.16466260E+00    2.01897260E-01 
S    1    1.000000
   3.27230410E-01    1.00000000E+00 
S    1    1.000000
   1.03072410E-01    1.00000000E+00 
P    1    1.000000
   8.00000000E-01    1.00000000E+00 
****
O    0
S    6    1.000000
   2.70323826E+04    2.17263025E-04 
   4.05238714E+03    1.68386622E-03 
   9.22327227E+02    8.73956163E-03 
   2.61240710E+02    3.52399688E-02 
   8.53546414E+01    1.11535191E-01 
   3.10350352E+01    2.55889540E-01 
S    2    1.000000
   1.22608607E+01    3.97687309E-01 
   4.99870760E+00    2.46278494E-01 
S    1    1.000000
   1.17031082E+00    1.00000000E+00 
S    1    1.000000
   4.64747410E-01    1.00000000E+00 
S    1    1.000000
   1.85045364E-01    1.00000000E+00 
S    1    1.000000
   7.02880263E-02    1.00000000E+00 
P    4    1.000000
   6.32749548E+01    6.06851034E-03 
   1.46270494E+01    4.19125758E-02 
   4.45012235E+00    1.61538411E-01 
   1.52757996E+00    3.57069513E-01 
P    1    1.000000
   5.29351179E-01    4.47942075E-01 
P    1    1.000000
   1.74784213E-01    2.44460697E-01 
P    1    1.000000
   5.11127457E-02    1.00000000E+00 
D    1    1.000000
   2.31400000E+00    1.00000000E+00 
D    1    1.000000
   6.45000000E-01    1.00000000E+00 
F    1    1.000000
   1.42800000E+00    1.00000000E+00 
****
H    0
S    3    1.000000
   3.40613410E+01    6.02519780E-03 
   5.12357460E+00    4.50210940E-02 
   1.16466260E+00    2.01897260E-01 
S    1    1.000000
   3.27230410E-01    1.00000000E+00 
S    1    1.000000
   1.03072410E-01    1.00000000E+00 
P    1    1.000000
   8.00000000E-01    1.00000000E+00 
****
H    0
S    3    1.000000
   3.40613410E+01    6.02519780E-03 
   5.12357460E+00    4.50210940E-02 
   1.16466260E+00    2.01897260E-01 
S    1    1.000000
   3.27230410E-01    1.00000000E+00 
S    1    1.000000
   1.03072410E-01    1.00000000E+00 
P    1    1.000000
   8.00000000E-01    1.00000000E+00 
****
O    0
S    6    1.000000
   2.70323826E+04    2.17263025E-04 
   4.05238714E+03    1.68386622E-03 
   9.22327227E+02    8.73956163E-03 
   2.61240710E+02    3.52399688E-02 
   8.53546414E+01    1.11535191E-01 
   3.10350352E+01    2.55889540E-01 
S    2    1.000000
   1.22608607E+01    3.97687309E-01 
   4.99870760E+00    2.46278494E-01 
S    1    1.000000
   1.17031082E+00    1.00000000E+00 
S    1    1.000000
   4.64747410E-01    1.00000000E+00 
S    1    1.000000
   1.85045364E-01    1.00000000E+00 
S    1    1.000000
   7.02880263E-02    1.00000000E+00 
P    4    1.000000
   6.32749548E+01    6.06851034E-03 
   1.46270494E+01    4.19125758E-02 
   4.45012235E+00    1.61538411E-01 
   1.52757996E+00    3.57069513E-01 
P    1    1.000000
   5.29351179E-01    4.47942075E-01 
P    1    1.000000
   1.74784213E-01    2.44460697E-01 
P    1    1.000000
   5.11127457E-02    1.00000000E+00 
D    1    1.000000
   2.31400000E+00    1.00000000E+00 
D    1    1.000000
   6.45000000E-01    1.00000000E+00 
F    1    1.000000
   1.42800000E+00    1.00000000E+00 
****
H    0
S    3    1.000000
   3.40613410E+01    6.02519780E-03 
   5.12357460E+00    4.50210940E-02 
   1.16466260E+00    2.01897260E-01 
S    1    1.000000
   3.27230410E-01    1.00000000E+00 
S    1    1.000000
   1.03072410E-01    1.00000000E+00 
P    1    1.000000
   8.00000000E-01    1.00000000E+00 
****
O    0
S    6    1.000000
   2.70323826E+04    2.17263025E-04 
   4.05238714E+03    1.68386622E-03 
   9.22327227E+02    8.73956163E-03 
   2.61240710E+02    3.52399688E-02 
   8.53546414E+01    1.11535191E-01 
   3.10350352E+01    2.55889540E-01 
S    2    1.000000
   1.22608607E+01    3.97687309E-01 
   4.99870760E+00    2.46278494E-01 
S    1    1.000000
   1.17031082E+00    1.00000000E+00 
S    1    1.000000
   4.64747410E-01    1.00000000E+00 
S    1    1.000000
   1.85045364E-01    1.00000000E+00 
S    1    1.000000
   7.02880263E-02    1.00000000E+00 
P    4    1.000000
   6.32749548E+01    6.06851034E-03 
   1.46270494E+01    4.19125758E-02 
   4.45012235E+00    1.61538411E-01 
   1.52757996E+00    3.57069513E-01 
P    1    1.000000
   5.29351179E-01    4.47942075E-01 
P    1    1.000000
   1.74784213E-01    2.44460697E-01 
P    1    1.000000
   5.11127457E-02    1.00000000E+00 
D    1    1.000000
   2.31400000E+00    1.00000000E+00 
D    1    1.000000
   6.45000000E-01    1.00000000E+00 
F    1    1.000000
   1.42800000E+00    1.00000000E+00 
****
O    0
S    6    1.000000
   2.70323826E+04    2.17263025E-04 
   4.05238714E+03    1.68386622E-03 
   9.22327227E+02    8.73956163E-03 
   2.61240710E+02    3.52399688E-02 
   8.53546414E+01    1.11535191E-01 
   3.10350352E+01    2.55889540E-01 
S    2    1.000000
   1.22608607E+01    3.97687309E-01 
   4.99870760E+00    2.46278494E-01 
S    1    1.000000
   1.17031082E+00    1.00000000E+00 
S    1    1.000000
   4.64747410E-01    1.00000000E+00 
S    1    1.000000
   1.85045364E-01    1.00000000E+00 
S    1    1.000000
   7.02880263E-02    1.00000000E+00 
P    4    1.000000
   6.32749548E+01    6.06851034E-03 
   1.46270494E+01    4.19125758E-02 
   4.45012235E+00    1.61538411E-01 
   1.52757996E+00    3.57069513E-01 
P    1    1.000000
   5.29351179E-01    4.47942075E-01 
P    1    1.000000
   1.74784213E-01    2.44460697E-01 
P    1    1.000000
   5.11127457E-02    1.00000000E+00 
D    1    1.000000
   2.31400000E+00    1.00000000E+00 
D    1    1.000000
   6.45000000E-01    1.00000000E+00 
F    1    1.000000
   1.42800000E+00    1.00000000E+00 
****
O    0
S    6    1.000000
   2.70323826E+04    2.17263025E-04 
   4.05238714E+03    1.68386622E-03 
   9.22327227E+02    8.73956163E-03 
   2.61240710E+02    3.52399688E-02 
   8.53546414E+01    1.11535191E-01 
   3.10350352E+01    2.55889540E-01 
S    2    1.000000
   1.22608607E+01    3.97687309E-01 
   4.99870760E+00    2.46278494E-01 
S    1    1.000000
   1.17031082E+00    1.00000000E+00 
S    1    1.000000
   4.64747410E-01    1.00000000E+00 
S    1    1.000000
   1.85045364E-01    1.00000000E+00 
S    1    1.000000
   7.02880263E-02    1.00000000E+00 
P    4    1.000000
   6.32749548E+01    6.06851034E-03 
   1.46270494E+01    4.19125758E-02 
   4.45012235E+00    1.61538411E-01 
   1.52757996E+00    3.57069513E-01 
P    1    1.000000
   5.29351179E-01    4.47942075E-01 
P    1    1.000000
   1.74784213E-01    2.44460697E-01 
P    1    1.000000
   5.11127457E-02    1.00000000E+00 
D    1    1.000000
   2.31400000E+00    1.00000000E+00 
D    1    1.000000
   6.45000000E-01    1.00000000E+00 
F    1    1.000000
   1.42800000E+00    1.00000000E+00 
****
H    0
S    3    1.000000
   3.40613410E+01    6.02519780E-03 
   5.12357460E+00    4.50210940E-02 
   1.16466260E+00    2.01897260E-01 
S    1    1.000000
   3.27230410E-01    1.00000000E+00 
S    1    1.000000
   1.03072410E-01    1.00000000E+00 
P    1    1.000000
   8.00000000E-01    1.00000000E+00 
****
H    0
S    3    1.000000
   3.40613410E+01    6.02519780E-03 
   5.12357460E+00    4.50210940E-02 
   1.16466260E+00    2.01897260E-01 
S    1    1.000000
   3.27230410E-01    1.00000000E+00 
S    1    1.000000
   1.03072410E-01    1.00000000E+00 
P    1    1.000000
   8.00000000E-01    1.00000000E+00 
****
C    0
S    6    1.000000
   1.35753497E+04    2.22458144E-04 
   2.03523337E+03    1.72327383E-03 
   4.63225624E+02    8.92557153E-03 
   1.31200196E+02    3.57279845E-02 
   4.28530159E+01    1.10762599E-01 
   1.55841858E+01    2.42956276E-01 
S    2    1.000000
   6.20671385E+00    4.14402634E-01 
   2.57648965E+00    2.37449687E-01 
S    1    1.000000
   5.76963394E-01    1.00000000E+00 
S    1    1.000000
   2.29728314E-01    1.00000000E+00 
S    1    1.000000
   9.51644400E-02    1.00000000E+00 
S    1    1.000000
   4.84754014E-02    1.00000000E+00 
P    4    1.000000
   3.46972322E+01    5.33336578E-03 
   7.95826228E+00    3.58641091E-02 
   2.37808269E+00    1.42158733E-01 
   8.14332082E-01    3.42704718E-01 
P    1    1.000000
   2.88875473E-01    4.64458224E-01 
P    1    1.000000
   1.00568237E-01    2.49557899E-01 
D    1    1.000000
   1.09700000E+00    1.00000000E+00 
D    1    1.000000
   3.18000000E-01    1.00000000E+00 
F    1    1.000000
   7.61000000E-01    1.00000000E+00 
****
H    0
S    3    1.000000
   3.40613410E+01    6.02519780E-03 
   5.12357460E+00    4.50210940E-02 
   1.16466260E+00    2.01897260E-01 
S    1    1.000000
   3.27230410E-01    1.00000000E+00 
S    1    1.000000
   1.03072410E-01    1.00000000E+00 
P    1    1.000000
   8.00000000E-01    1.00000000E+00 
****
H    0
S    3    1.000000
   3.40613410E+01    6.02519780E-03 
   5.12357460E+00    4.50210940E-02 
   1.16466260E+00    2.01897260E-01 
S    1    1.000000
   3.27230410E-01    1.00000000E+00 
S    1    1.000000
   1.03072410E-01    1.00000000E+00 
P    1    1.000000
   8.00000000E-01    1.00000000E+00 
****
H    0
S    3    1.000000
   3.40613410E+01    6.02519780E-03 
   5.12357460E+00    4.50210940E-02 
   1.16466260E+00    2.01897260E-01 
S    1    1.000000
   3.27230410E-01    1.00000000E+00 
S    1    1.000000
   1.03072410E-01    1.00000000E+00 
P    1    1.000000
   8.00000000E-01    1.00000000E+00 
****
H    0
S    3    1.000000
   3.40613410E+01    6.02519780E-03 
   5.12357460E+00    4.50210940E-02 
   1.16466260E+00    2.01897260E-01 
S    1    1.000000
   3.27230410E-01    1.00000000E+00 
S    1    1.000000
   1.03072410E-01    1.00000000E+00 
P    1    1.000000
   8.00000000E-01    1.00000000E+00 
****
H    0
S    3    1.000000
   3.40613410E+01    6.02519780E-03 
   5.12357460E+00    4.50210940E-02 
   1.16466260E+00    2.01897260E-01 
S    1    1.000000
   3.27230410E-01    1.00000000E+00 
S    1    1.000000
   1.03072410E-01    1.00000000E+00 
P    1    1.000000
   8.00000000E-01    1.00000000E+00 
****
H    0
S    3    1.000000
   3.40613410E+01    6.02519780E-03 
   5.12357460E+00    4.50210940E-02 
   1.16466260E+00    2.01897260E-01 
S    1    1.000000
   3.27230410E-01    1.00000000E+00 
S    1    1.000000
   1.03072410E-01    1.00000000E+00 
P    1    1.000000
   8.00000000E-01    1.00000000E+00 
****
$end
-----------------------------------------------------------------------
 There are 331 shells and 829 basis functions

 Total QAlloc Memory Limit  64000 MB
 Mega-Array Size      1956 MB
 MEM_STATIC part      2000 MB

 User-specified dielectric constants (eps_0 = 78.39, eps_inf = 1.78)
 Using C-PCM dielectric factor f(eps) = (eps-1)/eps = 0.987243
 Static dielectric constant eps = 78.39
 Discretize the solute cavity surface with Lebedev spheres
	Using 110 Lebedev grid points for each H atom
	Using 194 Lebedev grid points for other atoms
	Atomic van der Waals radii (Bondi set) will be scaled by 1.20
 Using smooth SwiG surface discretization
 Remove points where switching function is < 1.0e-08
 Keep 2366 surface tesserae and discard 3416 interior tesserae
 Molecular Surface Area = 327.704 Angst**2

 A cutoff of  1.0D-12 yielded  38341 shell pairs
 There are    225035 function pairs (    284888 Cartesian)
 Smallest overlap matrix eigenvalue = 4.35E-06

 Scale SEOQF with 1.000000e-01/1.000000e-01/1.000000e-02

 Standard Electronic Orientation quadrupole field applied
 Nucleus-field energy     =     0.0000000188 hartrees
 Guess from superposition of atomic densities
 Warning:  Energy on first SCF cycle will be non-variational
 SAD guess density has 164.000000 electrons

 -----------------------------------------------------------------------
  General SCF calculation program by
  Eric Jon Sundstrom, Paul Horn, Yuezhi Mao, Dmitri Zuev, Alec White,
  David Stuck, Shaama M.S., Shane Yost, Joonho Lee, David Small,
  Daniel Levine, Susi Lehtola, Hugh Burton, Evgeny Epifanovsky,
  Bang C. Huynh
 -----------------------------------------------------------------------
 Exchange:     0.1900 Hartree-Fock + 0.3500 B88 + 0.4600 muB88 + LR-HF
 Correlation:  0.1900 VWN5 + 0.8100 LYP
 Using SG-1 standard quadrature grid
 using 16 threads for integral computing
 -------------------------------------------------------
 OpenMP Integral computing Module                
 Release: version 1.0, May 2013, Q-Chem Inc. Pittsburgh 
 -------------------------------------------------------
 C-PCM solvent model [f = (eps-1)/eps], solve by matrix inversion
 DFT Correlation          Energy =  -6.69321447132094
 DFT Exchange             Energy = -102.74338915617423
 HF Exchange              Energy = -42.04288734146448
 One-Electron             Energy = -5212.83535122115063
 SCRF wf-dependent energy Energy =   0.00000000000000
 Total Coulomb            Energy = 2369.16154955655384
 Nuclear repulsion Energy = 1844.95335903207024
 A restricted SCF calculation will be
 performed using DIIS
 SCF converges when DIIS error is below 1.0e-08
 DFT Correlation          Energy =  -6.69321447132094
 DFT Exchange             Energy = -102.74338915617423
 HF Exchange              Energy = -42.04288734146448
 One-Electron             Energy = -5212.83535122115063
 SCRF wf-dependent energy Energy =   0.00000000000000
 Total Coulomb            Energy = 2369.16154955655384
 ---------------------------------------
  Cycle       Energy         DIIS error
 ---------------------------------------
 DFT Correlation          Energy =  -6.78111554283894
 DFT Exchange             Energy = -104.93508713946181
 HF Exchange              Energy = -40.68114179340724
 One-Electron             Energy = -5233.77635499171174
 SCRF wf-dependent energy Energy =  -1.09986662179836
 Total Coulomb            Energy = 2399.21254343168448
 Nuclear repulsion Energy = 1844.95335903207024
    1   -1150.1999336015      2.01e-02  
 DFT Correlation          Energy =  -6.71851095688718
 DFT Exchange             Energy = -103.07815850274689
 HF Exchange              Energy = -40.16250444200804
 One-Electron             Energy = -5219.84446630078037
 SCRF wf-dependent energy Energy =   0.44812106525296
 Total Coulomb            Energy = 2381.42357272563322
 Nuclear repulsion Energy = 1844.95335903207024
    2   -1143.1076636255      2.18e-03  
 DFT Correlation          Energy =  -6.74676539876273
 DFT Exchange             Energy = -103.98408970306767
 HF Exchange              Energy = -40.43537961947410
 One-Electron             Energy = -5223.95469421177313
 SCRF wf-dependent energy Energy =  -1.02670976608965
 Total Coulomb            Energy = 2387.77119429758159
 Nuclear repulsion Energy = 1844.95335903207024
    3   -1142.9785873795      2.73e-03  
 DFT Correlation          Energy =  -6.74893916951300
 DFT Exchange             Energy = -104.01625028305261
 HF Exchange              Energy = -40.44315515321209
 One-Electron             Energy = -5225.81413792376134
 SCRF wf-dependent energy Energy =  -0.64156833056450
 Total Coulomb            Energy = 2389.27393312235836
 Nuclear repulsion Energy = 1844.95335903207024
    4   -1143.4230853695      4.83e-04  
 DFT Correlation          Energy =  -6.74851762568202
 DFT Exchange             Energy = -104.00563351691449
 HF Exchange              Energy = -40.44115799017169
 One-Electron             Energy = -5225.77829417750763
 SCRF wf-dependent energy Energy =  -0.61531701207514
 Total Coulomb            Energy = 2389.19681894697305
 Nuclear repulsion Energy = 1844.95335903207024
    5   -1143.4367587057      1.79e-04  
 DFT Correlation          Energy =  -6.74829581599773
 DFT Exchange             Energy = -104.00351573715976
 HF Exchange              Energy = -40.44136613880592
 One-Electron             Energy = -5225.58513917837536
 SCRF wf-dependent energy Energy =  -0.65232267049782
 Total Coulomb            Energy = 2389.03829940432115
 Nuclear repulsion Energy = 1844.95335903207024
    6   -1143.4387423433      5.56e-05  
 DFT Correlation          Energy =  -6.74827938995680
 DFT Exchange             Energy = -104.00262714325497
 HF Exchange              Energy = -40.44137428417594
 One-Electron             Energy = -5225.60550375691764
 SCRF wf-dependent energy Energy =  -0.64094725263203
 Total Coulomb            Energy = 2389.04635987981828
 Nuclear repulsion Energy = 1844.95335903207024
    7   -1143.4389811044      1.54e-05  
 DFT Correlation          Energy =  -6.74833378537966
 DFT Exchange             Energy = -104.00392195212766
 HF Exchange              Energy = -40.44183054475369
 One-Electron             Energy = -5225.63946243116425
 SCRF wf-dependent energy Energy =  -0.63530423063730
 Total Coulomb            Energy = 2389.07647010037363
 Nuclear repulsion Energy = 1844.95335903207024
    8   -1143.4390129150      6.73e-06  
 DFT Correlation          Energy =  -6.74833125518385
 DFT Exchange             Energy = -104.00403811006939
 HF Exchange              Energy = -40.44195061509114
 One-Electron             Energy = -5225.64681223197113
 SCRF wf-dependent energy Energy =  -0.63097191849147
 Total Coulomb            Energy = 2389.07971676439138
 Nuclear repulsion Energy = 1844.95335903207024
    9   -1143.4390238116      3.17e-06  
 DFT Correlation          Energy =  -6.74832491370004
 DFT Exchange             Energy = -104.00381264275208
 HF Exchange              Energy = -40.44191385530329
 One-Electron             Energy = -5225.64496088972646
 SCRF wf-dependent energy Energy =  -0.63047556056176
 Total Coulomb            Energy = 2389.07709967342453
 Nuclear repulsion Energy = 1844.95335903207024
   10   -1143.4390283343      1.78e-06  
 DFT Correlation          Energy =  -6.74832981352578
 DFT Exchange             Energy = -104.00397334509947
 HF Exchange              Energy = -40.44195958743426
 One-Electron             Energy = -5225.64970470659591
 SCRF wf-dependent energy Energy =  -0.62913641401724
 Total Coulomb            Energy = 2389.08071548441194
 Nuclear repulsion Energy = 1844.95335903207024
   11   -1143.4390291565      6.20e-07  
 DFT Correlation          Energy =  -6.74833048847735
 DFT Exchange             Energy = -104.00396858703691
 HF Exchange              Energy = -40.44195833687781
 One-Electron             Energy = -5225.65065266778674
 SCRF wf-dependent energy Energy =  -0.62876977420228
 Total Coulomb            Energy = 2389.08129143870883
 Nuclear repulsion Energy = 1844.95335903207024
   12   -1143.4390293502      3.59e-07  
 DFT Correlation          Energy =  -6.74833037994859
 DFT Exchange             Energy = -104.00397502131112
 HF Exchange              Energy = -40.44195929089363
 One-Electron             Energy = -5225.65075732873811
 SCRF wf-dependent energy Energy =  -0.62868435108135
 Total Coulomb            Energy = 2389.08131795193185
 Nuclear repulsion Energy = 1844.95335903207024
   13   -1143.4390293836      1.32e-07  
 DFT Correlation          Energy =  -6.74833034350291
 DFT Exchange             Energy = -104.00397149049198
 HF Exchange              Energy = -40.44195804174740
 One-Electron             Energy = -5225.65081962309159
 SCRF wf-dependent energy Energy =  -0.62864492637641
 Total Coulomb            Energy = 2389.08133600497149
 Nuclear repulsion Energy = 1844.95335903207024
   14   -1143.4390293880      4.13e-08  
 DFT Correlation          Energy =  -6.74833041465598
 DFT Exchange             Energy = -104.00397355536430
 HF Exchange              Energy = -40.44195854419531
 One-Electron             Energy = -5225.65086520162822
 SCRF wf-dependent energy Energy =  -0.62863735162659
 Total Coulomb            Energy = 2389.08137664722790
 Nuclear repulsion Energy = 1844.95335903207024
   15   -1143.4390293882      1.79e-08  
   16   -1143.4390293882      5.18e-09  Convergence criterion met
 ---------------------------------------
 DFT Correlation          Energy =  -6.74833041465598
 DFT Exchange             Energy = -104.00397355536430
 HF Exchange              Energy = -40.44195854419531
 One-Electron             Energy = -5225.65086520162822
 SCRF wf-dependent energy Energy =  -0.62863735162659
 Total Coulomb            Energy = 2389.08137664722790
 Final Alpha MO Eigenvalues
            1           2           3           4           5           6
    1 -19.2994968 -19.2480637 -19.2466308 -19.2455524 -19.2439430 -19.2379512
            7           8           9          10          11          12
    1 -19.1516873 -10.3616891 -10.3465833 -10.3383654 -10.3357491 -10.3250753
           13          14          15          16          17          18
    1 -10.3243891 -10.3218492 -10.3211045 -10.2983902 -10.2959234 -10.2827884
           19          20          21          22          23          24
    1 -10.2757870 -10.2596710 -10.2584774 -10.2435374 -10.2327493  -1.2256152
           25          26          27          28          29          30
    1  -1.1776624  -1.1621093  -1.1567467  -1.1548373  -1.1373680  -1.0772254
           31          32          33          34          35          36
    1  -0.9663423  -0.9480466  -0.9232332  -0.8828651  -0.8484135  -0.8335664
           37          38          39          40          41          42
    1  -0.8202552  -0.7926899  -0.7668220  -0.7606166  -0.7164567  -0.6984073
           43          44          45          46          47          48
    1  -0.6854776  -0.6712548  -0.6482339  -0.6410396  -0.6283406  -0.6184475
           49          50          51          52          53          54
    1  -0.5937973  -0.5855744  -0.5764113  -0.5642977  -0.5623069  -0.5542948
           55          56          57          58          59          60
    1  -0.5470781  -0.5288088  -0.5196569  -0.5163537  -0.5100720  -0.5034730
           61          62          63          64          65          66
    1  -0.5015752  -0.4942327  -0.4899439  -0.4851636  -0.4704599  -0.4633940
           67          68          69          70          71          72
    1  -0.4590648  -0.4570005  -0.4531034  -0.4495327  -0.4357575  -0.4347332
           73          74          75          76          77          78
    1  -0.4231609  -0.4168736  -0.4049525  -0.3795895  -0.3621838  -0.3153450
           79          80          81          82          83          84
    1  -0.3132043  -0.2943314  -0.2779019  -0.2490427  -0.0684706   0.0057394
           85          86          87          88          89          90
    1   0.0241968   0.0320147   0.0378439   0.0395287   0.0455656   0.0499645
           91          92          93          94          95          96
    1   0.0507569   0.0587824   0.0611758   0.0660867   0.0743284   0.0755281
           97          98          99         100         101         102
    1   0.0848135   0.0882316   0.0903047   0.0920054   0.0995809   0.1035135
          103         104         105         106         107         108
    1   0.1086853   0.1094217   0.1146602   0.1180981   0.1254588   0.1286689
          109         110         111         112         113         114
    1   0.1358921   0.1427600   0.1448117   0.1454397   0.1470339   0.1486602
          115         116         117         118         119         120
    1   0.1565865   0.1633161   0.1697386   0.1725990   0.1800311   0.1851564
          121         122         123         124         125         126
    1   0.1865539   0.1919428   0.1948106   0.1980002   0.2029939   0.2155736
          127         128         129         130         131         132
    1   0.2168083   0.2183104   0.2247869   0.2289807   0.2328065   0.2344591
          133         134         135         136         137         138
    1   0.2381725   0.2399639   0.2415312   0.2474234   0.2478218   0.2593939
          139         140         141         142         143         144
    1   0.2618473   0.2682272   0.2740244   0.2805451   0.2824347   0.2864157
          145         146         147         148         149         150
    1   0.2893875   0.2952960   0.2988397   0.3056413   0.3086375   0.3098519
          151         152         153         154         155         156
    1   0.3140208   0.3195887   0.3248321   0.3281184   0.3321802   0.3333438
          157         158         159         160         161         162
    1   0.3406539   0.3425129   0.3466307   0.3503611   0.3538334   0.3580951
          163         164         165         166         167         168
    1   0.3635367   0.3644625   0.3733059   0.3736122   0.3796607   0.3860065
          169         170         171         172         173         174
    1   0.3873423   0.3956188   0.3991687   0.4010910   0.4071596   0.4095616
          175         176         177         178         179         180
    1   0.4141156   0.4207679   0.4285041   0.4292305   0.4331578   0.4355759
          181         182         183         184         185         186
    1   0.4416374   0.4463275   0.4503962   0.4547649   0.4589035   0.4609181
          187         188         189         190         191         192
    1   0.4674204   0.4703504   0.4766025   0.4785218   0.4835267   0.4852029
          193         194         195         196         197         198
    1   0.4861168   0.4934971   0.4999244   0.5023985   0.5042905   0.5173856
          199         200         201         202         203         204
    1   0.5221633   0.5239962   0.5284773   0.5320150   0.5379370   0.5423651
          205         206         207         208         209         210
    1   0.5484957   0.5516692   0.5601689   0.5604224   0.5666321   0.5685498
          211         212         213         214         215         216
    1   0.5732819   0.5818579   0.5833069   0.5896972   0.5979595   0.6020110
          217         218         219         220         221         222
    1   0.6101154   0.6111636   0.6124209   0.6243690   0.6276864   0.6337188
          223         224         225         226         227         228
    1   0.6480046   0.6491389   0.6526754   0.6593263   0.6613753   0.6648509
          229         230         231         232         233         234
    1   0.6675664   0.6733568   0.6772241   0.6814768   0.6863492   0.6911456
          235         236         237         238         239         240
    1   0.6939574   0.6961743   0.7109542   0.7164053   0.7217771   0.7239947
          241         242         243         244         245         246
    1   0.7305267   0.7328433   0.7431124   0.7467874   0.7555758   0.7604898
          247         248         249         250         251         252
    1   0.7653674   0.7666112   0.7715643   0.7779129   0.7873684   0.7895335
          253         254         255         256         257         258
    1   0.7923720   0.7973376   0.8024098   0.8054857   0.8076414   0.8183464
          259         260         261         262         263         264
    1   0.8203407   0.8234596   0.8268309   0.8312818   0.8354428   0.8385531
          265         266         267         268         269         270
    1   0.8458501   0.8505584   0.8622332   0.8653132   0.8746438   0.8837856
          271         272         273         274         275         276
    1   0.8922329   0.8969662   0.9026197   0.9094384   0.9161261   0.9187151
          277         278         279         280         281         282
    1   0.9227209   0.9319791   0.9461793   0.9534010   0.9585159   0.9805790
          283         284         285         286         287         288
    1   0.9877738   0.9896577   1.0059367   1.0189737   1.0320581   1.0428517
          289         290         291         292         293         294
    1   1.0479066   1.0557203   1.0638921   1.0665172   1.0783566   1.0852174
          295         296         297         298         299         300
    1   1.0923437   1.0985358   1.1093605   1.1151732   1.1219368   1.1297128
          301         302         303         304         305         306
    1   1.1379331   1.1412273   1.1503466   1.1612385   1.1744123   1.1762240
          307         308         309         310         311         312
    1   1.1813521   1.1893219   1.1922707   1.2033919   1.2127246   1.2190180
          313         314         315         316         317         318
    1   1.2239709   1.2334306   1.2402510   1.2431458   1.2586431   1.2705821
          319         320         321         322         323         324
    1   1.2768147   1.2932869   1.2973337   1.3081389   1.3222325   1.3375409
          325         326         327         328         329         330
    1   1.3418482   1.3470895   1.3624680   1.3660711   1.3849874   1.3911799
          331         332         333         334         335         336
    1   1.3973968   1.4011745   1.4176250   1.4204753   1.4395621   1.4448041
          337         338         339         340         341         342
    1   1.4530164   1.4621875   1.4669542   1.4799206   1.4835184   1.4949888
          343         344         345         346         347         348
    1   1.4996121   1.5044239   1.5253997   1.5287903   1.5361137   1.5389294
          349         350         351         352         353         354
    1   1.5508362   1.5653533   1.5661420   1.5789476   1.5821474   1.5861505
          355         356         357         358         359         360
    1   1.5912492   1.5942955   1.6020709   1.6131671   1.6216841   1.6274098
          361         362         363         364         365         366
    1   1.6437091   1.6491432   1.6563624   1.6699853   1.6729400   1.6781130
          367         368         369         370         371         372
    1   1.6928318   1.6978213   1.7035290   1.7096347   1.7338574   1.7380940
          373         374         375         376         377         378
    1   1.7418956   1.7515115   1.7565484   1.7623224   1.7642127   1.7666814
          379         380         381         382         383         384
    1   1.7750306   1.7819346   1.7873861   1.7953590   1.8176647   1.8250620
          385         386         387         388         389         390
    1   1.8352994   1.8381220   1.8512416   1.8574067   1.8651897   1.8794197
          391         392         393         394         395         396
    1   1.9031209   1.9071003   1.9220038   1.9331676   1.9357160   1.9415720
          397         398         399         400         401         402
    1   1.9510957   1.9602339   1.9614182   1.9740323   1.9819368   1.9951738
          403         404         405         406         407         408
    1   2.0041210   2.0207389   2.0281528   2.0378085   2.0446787   2.0502471
          409         410         411         412         413         414
    1   2.0524575   2.0555315   2.0670486   2.0735707   2.0830482   2.0903183
          415         416         417         418         419         420
    1   2.0969795   2.1065109   2.1178044   2.1238063   2.1313024   2.1411812
          421         422         423         424         425         426
    1   2.1575524   2.1709578   2.1753551   2.1855276   2.1872271   2.1948598
          427         428         429         430         431         432
    1   2.1972127   2.2031164   2.2084251   2.2146948   2.2244702   2.2335726
          433         434         435         436         437         438
    1   2.2411490   2.2497014   2.2603312   2.2650363   2.2762779   2.2903477
          439         440         441         442         443         444
    1   2.2945734   2.3114950   2.3149257   2.3241942   2.3377424   2.3413724
          445         446         447         448         449         450
    1   2.3507163   2.3613236   2.3647758   2.3788960   2.3846778   2.3970345
          451         452         453         454         455         456
    1   2.4010187   2.4185407   2.4295697   2.4513792   2.4576569   2.4656606
          457         458         459         460         461         462
    1   2.4715843   2.4839080   2.4918000   2.4996839   2.5096232   2.5280506
          463         464         465         466         467         468
    1   2.5429921   2.5591527   2.5634718   2.5701607   2.5816934   2.5867243
          469         470         471         472         473         474
    1   2.5932750   2.5963339   2.6016925   2.6063935   2.6294213   2.6343749
          475         476         477         478         479         480
    1   2.6414926   2.6592204   2.6672613   2.6721678   2.6837681   2.6878386
          481         482         483         484         485         486
    1   2.7000478   2.7034093   2.7083781   2.7172482   2.7269892   2.7349945
          487         488         489         490         491         492
    1   2.7419267   2.7620381   2.7684844   2.7753069   2.7855205   2.7922905
          493         494         495         496         497         498
    1   2.7941844   2.8025894   2.8074004   2.8272434   2.8343347   2.8490585
          499         500         501         502         503         504
    1   2.8540877   2.8594101   2.8611094   2.8695407   2.8777829   2.8809959
          505         506         507         508         509         510
    1   2.8834084   2.8959023   2.9046961   2.9137325   2.9162337   2.9316364
          511         512         513         514         515         516
    1   2.9366783   2.9431620   2.9479451   2.9567564   2.9687234   2.9704986
          517         518         519         520         521         522
    1   2.9823237   2.9950490   2.9969128   3.0065175   3.0108489   3.0180975
          523         524         525         526         527         528
    1   3.0247083   3.0285936   3.0375479   3.0447508   3.0560708   3.0629165
          529         530         531         532         533         534
    1   3.0700376   3.0806467   3.0841157   3.0892149   3.1026433   3.1070229
          535         536         537         538         539         540
    1   3.1200381   3.1261706   3.1350401   3.1415094   3.1432188   3.1512363
          541         542         543         544         545         546
    1   3.1616075   3.1718977   3.1773452   3.1825516   3.1892168   3.1951245
          547         548         549         550         551         552
    1   3.2093907   3.2153616   3.2191859   3.2244032   3.2343676   3.2387298
          553         554         555         556         557         558
    1   3.2424312   3.2502902   3.2563737   3.2654181   3.2690129   3.2747685
          559         560         561         562         563         564
    1   3.2813032   3.2882983   3.2951631   3.3076018   3.3162577   3.3230444
          565         566         567         568         569         570
    1   3.3298472   3.3327572   3.3360160   3.3542655   3.3556939   3.3621103
          571         572         573         574         575         576
    1   3.3662117   3.3739574   3.3814407   3.3880043   3.3917812   3.4004551
          577         578         579         580         581         582
    1   3.4085457   3.4161954   3.4229856   3.4280492   3.4327973   3.4378354
          583         584         585         586         587         588
    1   3.4445025   3.4545453   3.4618008   3.4689608   3.4706006   3.4810414
          589         590         591         592         593         594
    1   3.4852866   3.4927910   3.4960758   3.5035630   3.5125821   3.5214241
          595         596         597         598         599         600
    1   3.5228642   3.5273798   3.5332725   3.5470915   3.5536235   3.5612162
          601         602         603         604         605         606
    1   3.5662576   3.5728134   3.5807373   3.5901916   3.6046236   3.6122779
          607         608         609         610         611         612
    1   3.6236971   3.6244907   3.6306984   3.6438789   3.6571524   3.6659347
          613         614         615         616         617         618
    1   3.6732139   3.6771206   3.6790570   3.6920997   3.7055045   3.7092431
          619         620         621         622         623         624
    1   3.7291793   3.7379639   3.7469451   3.7550974   3.7620073   3.7780281
          625         626         627         628         629         630
    1   3.7829352   3.8026968   3.8446640   3.8657586   3.8748244   3.8849640
          631         632         633         634         635         636
    1   3.8988734   3.9201417   3.9325232   3.9532475   3.9681773   3.9854173
          637         638         639         640         641         642
    1   3.9887959   4.0202037   4.0267016   4.0415916   4.0473875   4.0548591
          643         644         645         646         647         648
    1   4.0734513   4.0782897   4.0872167   4.1029387   4.1136528   4.1507261
          649         650         651         652         653         654
    1   4.1544403   4.1847254   4.1916779   4.2016432   4.2040406   4.2244016
          655         656         657         658         659         660
    1   4.2254214   4.2325455   4.2457477   4.2644938   4.2664171   4.2799694
          661         662         663         664         665         666
    1   4.2881806   4.2960573   4.2987828   4.3021000   4.3221732   4.3332446
          667         668         669         670         671         672
    1   4.3583263   4.3729241   4.3876067   4.4037559   4.4175862   4.4429943
          673         674         675         676         677         678
    1   4.4567377   4.4830762   4.5005590   4.5033663   4.5238878   4.5367701
          679         680         681         682         683         684
    1   4.5581263   4.5778475   4.5888526   4.5987148   4.6053759   4.6100361
          685         686         687         688         689         690
    1   4.6363817   4.6491686   4.6552380   4.6779383   4.6833443   4.6895600
          691         692         693         694         695         696
    1   4.7076930   4.7749007   4.8137296   4.8172119   4.8485694   4.8714982
          697         698         699         700         701         702
    1   4.8785143   4.9242541   4.9387829   4.9552271   4.9765815   4.9916759
          703         704         705         706         707         708
    1   5.0121133   5.0301482   5.0486341   5.0730386   5.1236600   5.1326194
          709         710         711         712         713         714
    1   5.1434546   5.1786998   5.2024035   5.2547828   5.2784157   5.2797242
          715         716         717         718         719         720
    1   5.2941212   5.3042467   5.3200729   5.3264527   5.3295882   5.3460119
          721         722         723         724         725         726
    1   5.3518275   5.3662736   5.3925501   5.4041922   5.4562358   5.4707080
          727         728         729         730         731         732
    1   5.5054171   5.5110193   5.5260872   5.5281567   5.5365228   5.5509686
          733         734         735         736         737         738
    1   5.5699366   5.5798789   5.5873673   5.5922535   5.6376864   5.6583831
          739         740         741         742         743         744
    1   5.6772046   5.7004469   5.7106628   5.7868873   5.8058718   5.8219841
          745         746         747         748         749         750
    1   5.8408967   5.8452021   5.8819254   5.9219119   5.9237594   6.0088597
          751         752         753         754         755         756
    1   6.0223877   6.0323415   6.0498282   6.0854190   6.1353820   6.1532689
          757         758         759         760         761         762
    1   6.1981014   6.2232326   6.2974742   6.3399553   6.3859198   6.4040324
          763         764         765         766         767         768
    1   6.4422484   6.4558283   6.4664224   6.4682895   6.4778795   6.4872042
          769         770         771         772         773         774
    1   6.4959309   6.4997941   6.5147148   6.5337305   6.6495818   6.6699668
          775         776         777         778         779         780
    1   6.6822160   6.7312551   6.7347404   6.7489729   6.7610094   6.7756049
          781         782         783         784         785         786
    1   6.7860373   6.8340285   6.8981597   6.9117264   6.9147883   6.9199524
          787         788         789         790         791         792
    1   6.9239686   6.9368717   6.9559753   6.9686359   6.9850487   7.0234660
          793         794         795         796         797         798
    1   7.0695534   7.1056398   7.1501628   7.1808069   7.2259103   7.2516638
          799         800         801         802         803         804
    1   7.2789057   7.3293281   7.3801559   7.4036358   7.4795641   7.4999959
          805         806         807         808         809         810
    1   7.5475653   7.5778538  22.4374229  22.4791122  22.5898345  22.8006227
          811         812         813         814         815         816
    1  22.8806249  22.8896097  22.9160577  22.9846028  23.0092452  23.0628934
          817         818         819         820         821         822
    1  23.0855123  23.0986565  23.2235605  23.3756452  23.6057306  23.6822381
          823         824         825         826         827         828
    1  44.0216169  44.1089544  44.1437538  44.1739356  44.2557121  44.4113349
          829
    1  44.6623508
 SCF time:   CPU 6241.38s  wall 535.00s 
 DFT Correlation          Energy =  -6.74833041465598
 DFT Exchange             Energy = -104.00397355536430
 HF Exchange              Energy = -40.44195854419531
 One-Electron             Energy = -5225.65086520162822
 SCRF wf-dependent energy Energy =  -0.62863735162659
 Total Coulomb            Energy = 2389.08137664722790
 Nuclear repulsion Energy = 1844.95335903207024

************** Final PCM Free Energy Summary **************
 G_electrostatic  =      -0.04715747 hartree =     -29.59175805 kcal/mol
 G_cavitation     =       0.00000000 hartree =       0.00000000 kcal/mol
 G_dispersion     =       0.00000000 hartree =       0.00000000 kcal/mol
 G_repulsion      =       0.00000000 hartree =       0.00000000 kcal/mol
 --------------------------------------------------
 Non-electrostatic Free Energy =       0.00000000 hartree =       0.00000000 kcal/mol
 Total                         =      -0.04715747 hartree =     -29.59175805 kcal/mol
 --------------------------------------------------
 SCF Energy (H0 + V/2)                       =   -1143.43902939 
 Solute Internal Energy (H0)                 =   -1143.39187192 
 Total Free Energy (H0 + V/2 + non-elec)     =   -1143.43902939 hartree
                                             = -717518.82395454 kcal/mol
***********************************************************

 SCF   energy = -1143.43902939
 Total energy = -1143.43902939
 MAX_CIS_SUBSPACE fits in available memory
 Direct TDDFT/TDA calculation will be performed
 Exchange:     0.1900 Hartree-Fock + 0.3500 B88 + 0.4600 muB88 + LR-HF
 Correlation:  0.1900 VWN5 + 0.8100 LYP
 Using SG-1 standard quadrature grid
 Triplet excitation energies requested
 Singlet excitation energies requested
 Adding PCM contribution to the XC response (LR-PCM)
 Optical dielectric constant (eps_inf) =  1.78
 CIS energy converged when residual is below 10e- 6
 ---------------------------------------------------
 Iter    Rts Conv    Rts Left    Ttl Dev     Max Dev
 ---------------------------------------------------
   1         0           7      0.000842    0.000136
   2         0           7      0.000333    0.000059
   3         0           7      0.000256    0.000146
   4         0           7      0.000154    0.000101
   5         1           6      0.000104    0.000076
   6         4           3      0.000070    0.000059
   7         4           3      0.000055    0.000050
   8         6           1      0.000023    0.000020
   9         6           1      0.000007    0.000005
  10         6           1      0.000004    0.000002
  11         7           0      0.000003    0.000001    Roots Converged
 ---------------------------------------------------
 Triplets done: starting singlet calculation
 ---------------------------------------------------
 Iter    Rts Conv    Rts Left    Ttl Dev     Max Dev
 ---------------------------------------------------
  12         0           7      0.001858    0.000426
  13         0           7      0.000497    0.000094
  14         0           7      0.000282    0.000059
  15         0           7      0.000164    0.000055
  16         0           7      0.000087    0.000042
  17         2           5      0.000057    0.000039
  18         3           4      0.000027    0.000018
  19         5           2      0.000019    0.000014
  20         6           1      0.000010    0.000006
  21         6           1      0.000008    0.000005
  22         6           1      0.000006    0.000002
  23         6           1      0.000005    0.000001
  24         7           0      0.000004    0.000001    Roots Converged
 ---------------------------------------------------
 
 ---------------------------------------------------
         TDDFT/TDA Excitation Energies              
 ---------------------------------------------------

 Excited state   1: excitation energy (eV) =       1.5918
 Total energy for state   1:                 -1143.38053256 au
    Multiplicity: Triplet
    Trans. Mom.:  0.0000 X   0.0000 Y   0.0000 Z
    Strength   :     0.0000000000
    D(   79) --> V(    1) amplitude =  0.1732
    D(   81) --> V(    2) amplitude = -0.0882
    D(   82) --> V(    1) amplitude =  0.9631

 Excited state   2: excitation energy (eV) =       2.5440
 Total energy for state   2:                 -1143.34553740 au
    Multiplicity: Singlet
    Trans. Mom.: -0.0769 X  -0.1541 Y   2.6620 Z
    Strength   :     0.4435146449
    D(   81) --> V(    1) amplitude =  0.1709
    D(   82) --> V(    1) amplitude =  0.9655
    D(   82) --> V(    2) amplitude = -0.0828

 Excited state   3: excitation energy (eV) =       2.6400
 Total energy for state   3:                 -1143.34201084 au
    Multiplicity: Triplet
    Trans. Mom.:  0.0000 X   0.0000 Y   0.0000 Z
    Strength   :     0.0000000000
    D(   77) --> V(    1) amplitude = -0.1467
    D(   79) --> V(    1) amplitude = -0.1655
    D(   79) --> V(    2) amplitude =  0.0960
    D(   79) --> V(    8) amplitude =  0.0781
    D(   81) --> V(    1) amplitude =  0.8752
    D(   82) --> V(    2) amplitude = -0.3404

 Excited state   4: excitation energy (eV) =       3.3824
 Total energy for state   4:                 -1143.31472976 au
    Multiplicity: Triplet
    Trans. Mom.:  0.0000 X   0.0000 Y   0.0000 Z
    Strength   :     0.0000000000
    D(   79) --> V(    1) amplitude =  0.1008
    D(   80) --> V(    1) amplitude =  0.8960
    D(   80) --> V(    2) amplitude =  0.3314
    D(   80) --> V(    8) amplitude =  0.1805

 Excited state   5: excitation energy (eV) =       3.4240
 Total energy for state   5:                 -1143.31319800 au
    Multiplicity: Triplet
    Trans. Mom.:  0.0000 X   0.0000 Y   0.0000 Z
    Strength   :     0.0000000000
    D(   75) --> V(    1) amplitude =  0.1237
    D(   79) --> V(    1) amplitude =  0.7694
    D(   80) --> V(    1) amplitude = -0.1096
    D(   80) --> V(    6) amplitude =  0.0774
    D(   81) --> V(    2) amplitude =  0.3859
    D(   81) --> V(    8) amplitude =  0.1954
    D(   81) --> V(    9) amplitude = -0.0743
    D(   82) --> V(    1) amplitude = -0.1173
    D(   82) --> V(    2) amplitude = -0.2625
    D(   82) --> V(   11) amplitude = -0.1227
    D(   82) --> V(   12) amplitude =  0.1197

 Excited state   6: excitation energy (eV) =       3.5046
 Total energy for state   6:                 -1143.31023732 au
    Multiplicity: Singlet
    Trans. Mom.: -0.0026 X  -0.2134 Y  -2.4956 Z
    Strength   :     0.5386503405
    D(   76) --> V(    1) amplitude = -0.0715
    D(   77) --> V(    1) amplitude = -0.0913
    D(   79) --> V(    1) amplitude = -0.1816
    D(   81) --> V(    1) amplitude =  0.9394
    D(   82) --> V(    1) amplitude = -0.1717
    D(   82) --> V(    2) amplitude = -0.1027

 Excited state   7: excitation energy (eV) =       3.5330
 Total energy for state   7:                 -1143.30919396 au
    Multiplicity: Triplet
    Trans. Mom.:  0.0000 X   0.0000 Y   0.0000 Z
    Strength   :     0.0000000000
    D(   78) --> V(    1) amplitude =  0.9338
    D(   78) --> V(    2) amplitude = -0.1451
    D(   78) --> V(    8) amplitude = -0.2165
    D(   78) --> V(    9) amplitude =  0.0913
    D(   78) --> V(   12) amplitude = -0.0836

 Excited state   8: excitation energy (eV) =       3.5991
 Total energy for state   8:                 -1143.30676420 au
    Multiplicity: Triplet
    Trans. Mom.:  0.0000 X   0.0000 Y   0.0000 Z
    Strength   :     0.0000000000
    D(   75) --> V(    1) amplitude =  0.0873
    D(   76) --> V(    1) amplitude =  0.0801
    D(   77) --> V(    1) amplitude =  0.0962
    D(   78) --> V(    1) amplitude = -0.0732
    D(   79) --> V(    1) amplitude =  0.1120
    D(   79) --> V(    2) amplitude =  0.1764
    D(   81) --> V(    1) amplitude =  0.3087
    D(   81) --> V(    2) amplitude =  0.2137
    D(   81) --> V(    8) amplitude = -0.1187
    D(   82) --> V(    2) amplitude =  0.7450
    D(   82) --> V(    8) amplitude = -0.3784
    D(   82) --> V(    9) amplitude =  0.1460

 Excited state   9: excitation energy (eV) =       3.7196
 Total energy for state   9:                 -1143.30233641 au
    Multiplicity: Singlet
    Trans. Mom.: -0.0191 X   0.0292 Y   0.1326 Z
    Strength   :     0.0017144428
    D(   78) --> V(    1) amplitude =  0.9480
    D(   78) --> V(    2) amplitude = -0.1483
    D(   78) --> V(    8) amplitude = -0.1862
    D(   78) --> V(    9) amplitude =  0.0777
    D(   79) --> V(    1) amplitude =  0.0980

 Excited state  10: excitation energy (eV) =       3.9735
 Total energy for state  10:                 -1143.29300528 au
    Multiplicity: Singlet
    Trans. Mom.: -0.0631 X   0.4504 Y   0.2310 Z
    Strength   :     0.0253303067
    D(   80) --> V(    1) amplitude =  0.9540
    D(   80) --> V(    2) amplitude =  0.1613
    D(   80) --> V(    8) amplitude =  0.0723
    D(   81) --> V(    5) amplitude = -0.0803
    D(   81) --> V(    6) amplitude = -0.1263
    D(   82) --> V(    6) amplitude =  0.1020

 Excited state  11: excitation energy (eV) =       4.0874
 Total energy for state  11:                 -1143.28882084 au
    Multiplicity: Triplet
    Trans. Mom.:  0.0000 X   0.0000 Y   0.0000 Z
    Strength   :     0.0000000000
    D(   63) --> V(    1) amplitude =  0.0873
    D(   76) --> V(    1) amplitude = -0.5245
    D(   76) --> V(    2) amplitude =  0.0913
    D(   77) --> V(    1) amplitude =  0.5551
    D(   79) --> V(    2) amplitude =  0.2208
    D(   81) --> V(    1) amplitude =  0.1338
[...]
      XZZZ     177.6346   YZZZ     927.3035   ZZZZ   -8109.3351
    5th-Order Moments (Debye-Ang^4)
       500      12.2679    410      -3.1951    320     -75.1895
       230     226.1213    140     150.8457    050    2444.2975
       401     -10.0410    311     533.8145    221     -61.5272
       131     455.7188    041      16.8900    302     528.4986
       212     406.2686    122     109.2383    032     195.3907
       203     389.8091    113     513.7100    023    1057.1264
       104    -338.6543    014   -4778.9276    005    4854.6734
 -----------------------------------------------------------------
 -----------------------------------------------------------------
                 RPA Excited-State Multipoles, State    4   
                  LMN = < X^L Y^M Z^N >
 -----------------------------------------------------------------
    Charge (ESU x 10^10)
                -0.0000
    Dipole Moment (Debye)
         X       0.0475      Y      -6.9447      Z       8.2434
       Tot      10.7789
    Quadrupole Moments (Debye-Ang)
        XX    -135.4991     XY      -0.5309     YY    -117.0596
        XZ       3.8935     YZ      11.8211     ZZ    -130.3855
    Octopole Moments (Debye-Ang^2)
       XXX      11.7740    XXY       1.2714    XYY      18.9629
       YYY      -9.5474    XXZ       8.2587    XYZ      -1.1967
       YYZ      51.9540    XZZ     -31.4779    YZZ    -230.7874
       ZZZ     203.0524
    Hexadecapole Moments (Debye-Ang^3)
      XXXX    -214.2962   XXXY     -38.0793   XXYY    -474.4482
      XYYY      -7.6792   YYYY   -2234.3653   XXXZ      52.6686
      XXYZ      -7.3383   XYYZ      33.5770   YYYZ    -201.6000
      XXZZ   -1627.6537   XYZZ     -51.9168   YYZZ   -1963.6119
      XZZZ     182.3704   YZZZ    1035.8607   ZZZZ   -8243.0986
    5th-Order Moments (Debye-Ang^4)
       500      13.1188    410      -1.3868    320     -75.5303
       230     227.4225    140     144.8782    050    2428.7524
       401      -7.1719    311     532.6122    221     -61.6741
       131     445.4525    041     -17.2319    302     524.0200
       212     405.7029    122      83.2583    032     103.6803
       203     429.3830    113     486.4865    023    1062.1189
       104    -449.0262    014   -5061.8928    005    6544.0695
 -----------------------------------------------------------------
 -----------------------------------------------------------------
                 RPA Excited-State Multipoles, State    5   
                  LMN = < X^L Y^M Z^N >
 -----------------------------------------------------------------
    Charge (ESU x 10^10)
                -0.0000
    Dipole Moment (Debye)
         X       0.0125      Y      -7.8579      Z      18.1255
       Tot      19.7555
    Quadrupole Moments (Debye-Ang)
        XX    -135.3963     XY      -1.7862     YY    -112.7898
        XZ       3.6001     YZ       8.5165     ZZ    -143.7140
    Octopole Moments (Debye-Ang^2)
       XXX      11.6941    XXY       1.0534    XYY      18.3407
       YYY     -13.3312    XXZ      14.2870    XYZ      -3.2053
       YYZ      86.5606    XZZ     -28.5826    YZZ    -217.9077
       ZZZ     318.9810
    Hexadecapole Moments (Debye-Ang^3)
      XXXX    -213.6939   XXXY     -40.3265   XXYY    -471.4931
      XYYY     -13.4479   YYYY   -2220.8860   XXXZ      51.9718
      XXYZ      -8.6358   XYYZ      29.9241   YYYZ    -224.6442
      XXZZ   -1636.3339   XYZZ     -68.7310   YYZZ   -1925.4386
      XZZZ     181.4651   YZZZ     986.0874   ZZZZ   -8870.5141
    5th-Order Moments (Debye-Ang^4)
       500      13.0847    410      -1.4063    320     -76.4236
       230     226.0879    140     144.2074    050    2392.6516
       401       2.9749    311     528.7812    221     -42.2644
       131     442.6082    041     170.4766    302     529.0106
       212     418.4613    122      83.9568    032     149.1268
       203     503.7570    113     464.9190    023    1595.7381
       104    -361.4345    014   -4632.0641    005    8288.1137
 -----------------------------------------------------------------
 -----------------------------------------------------------------
                 RPA Excited-State Multipoles, State    6   
                  LMN = < X^L Y^M Z^N >
 -----------------------------------------------------------------
    Charge (ESU x 10^10)
                -0.0000
    Dipole Moment (Debye)
         X      -0.1494      Y      -8.7244      Z      10.0301
       Tot      13.2944
    Quadrupole Moments (Debye-Ang)
        XX    -135.7744     XY      -0.6230     YY    -118.5645
        XZ       4.4977     YZ      14.4077     ZZ    -122.0116
    Octopole Moments (Debye-Ang^2)
       XXX      11.2464    XXY      -0.1614    XYY      19.1716
       YYY     -13.7143    XXZ       9.3180    XYZ       0.2080
       YYZ      58.4355    XZZ     -33.4896    YZZ    -249.1456
       ZZZ     207.4301
    Hexadecapole Moments (Debye-Ang^3)
      XXXX    -215.4685   XXXY     -38.8648   XXYY    -476.2407
      XYYY      -7.6269   YYYY   -2243.2882   XXXZ      54.2745
      XXYZ      -4.9021   XYYZ      35.3266   YYYZ    -194.8932
      XXZZ   -1625.8401   XYZZ     -52.9320   YYZZ   -1989.2221
      XZZZ     188.8706   YZZZ    1045.4061   ZZZZ   -8035.6429
    5th-Order Moments (Debye-Ang^4)
       500      10.9119    410      -5.0121    320     -76.7085
       230     221.9426    140     149.2987    050    2417.9170
       401      -4.1689    311     535.5252    221     -55.0527
       131     452.8458    041      32.6352    302     519.9579
       212     392.0498    122      88.2051    032      55.8832
       203     428.6361    113     513.1868    023    1108.7563
       104    -479.0388    014   -5361.0933    005    6375.5424
 -----------------------------------------------------------------
 -----------------------------------------------------------------
                 RPA Excited-State Multipoles, State    7   
                  LMN = < X^L Y^M Z^N >
 -----------------------------------------------------------------
    Charge (ESU x 10^10)
                -0.0000
    Dipole Moment (Debye)
         X       0.3641      Y      -5.9785      Z       6.5631
       Tot       8.8853
    Quadrupole Moments (Debye-Ang)
        XX    -135.5914     XY       0.1851     YY    -114.2211
        XZ       3.4343     YZ       3.5160     ZZ    -139.5357
    Octopole Moments (Debye-Ang^2)
       XXX      12.2152    XXY       1.7687    XYY      20.0413
       YYY      -4.1352    XXZ       7.7637    XYZ      -2.3293
       YYZ      39.8923    XZZ     -22.9507    YZZ    -200.5679
       ZZZ     178.2143
    Hexadecapole Moments (Debye-Ang^3)
      XXXX    -214.4597   XXXY     -37.0122   XXYY    -472.5052
      XYYY      -5.6946   YYYY   -2228.5352   XXXZ      52.1948
      XXYZ     -12.0181   XYYZ      30.9290   YYYZ    -238.5321
      XXZZ   -1637.9968   XYZZ     -41.7810   YYZZ   -1954.4090
      XZZZ     166.5113   YZZZ     811.1236   ZZZZ   -8546.9244
    5th-Order Moments (Debye-Ang^4)
       500      14.1573    410      -0.4633    320     -74.0064
       230     230.9936    140     152.2184    050    2475.8384
       401      -6.5989    311     530.6017    221     -66.9056
       131     447.2292    041     -56.5824    302     536.3566
       212     421.8044    122     112.5515    032     236.3076
       203     441.6156    113     476.0314    023     859.7514
       104    -228.7599    014   -4191.4523    005    6223.7729
 -----------------------------------------------------------------
 -----------------------------------------------------------------
                 RPA Excited-State Multipoles, State    8   
                  LMN = < X^L Y^M Z^N >
 -----------------------------------------------------------------
    Charge (ESU x 10^10)
                -0.0000
    Dipole Moment (Debye)
         X       1.1827      Y      -2.2539      Z      -3.5231
       Tot       4.3464
    Quadrupole Moments (Debye-Ang)
        XX    -137.3046     XY       0.8748     YY    -113.1940
        XZ      -0.7657     YZ     -20.1430     ZZ     -92.9747
    Octopole Moments (Debye-Ang^2)
       XXX      12.1490    XXY       1.4515    XYY      23.0501
       YYY      10.3036    XXZ       9.3626    XYZ      -7.8442
       YYZ      11.2546    XZZ       0.2357    YZZ     -79.2760
       ZZZ    -134.2186
    Hexadecapole Moments (Debye-Ang^3)
      XXXX    -218.3723   XXXY     -38.7458   XXYY    -477.1063
      XYYY      -2.2752   YYYY   -2228.9193   XXXZ      51.5777
      XXYZ     -14.9879   XYYZ      14.6298   YYYZ    -330.2765
      XXZZ   -1644.4559   XYZZ     -10.0926   YYZZ   -1796.8642
      XZZZ      56.3372   YZZZ     208.2885   ZZZZ   -7044.3746
    5th-Order Moments (Debye-Ang^4)
       500      12.5135    410      -3.5032    320     -74.8761
       230     228.2795    140     166.2818    050    2534.0611
       401      -0.2096    311     533.8241    221     -61.9953
       131     423.7810    041    -168.2698    302     543.6211
       212     439.8742    122     194.9429    032     708.2501
       203     421.8453    113     308.0569    023     -51.9143
       104     378.1280    014   -1074.0625    005   -3146.6913
 -----------------------------------------------------------------
 -----------------------------------------------------------------
                 RPA Excited-State Multipoles, State    9   
                  LMN = < X^L Y^M Z^N >
 -----------------------------------------------------------------
    Charge (ESU x 10^10)
                -0.0000
    Dipole Moment (Debye)
         X       1.2033      Y      -2.2663      Z      -4.3132
       Tot       5.0187
    Quadrupole Moments (Debye-Ang)
        XX    -137.3945     XY       0.8896     YY    -113.3276
        XZ      -0.8632     YZ     -20.6867     ZZ     -89.2371
    Octopole Moments (Debye-Ang^2)
       XXX      12.0645    XXY       1.2319    XYY      23.0656
       YYY       9.5864    XXZ       9.2783    XYZ      -8.0094
       YYZ      10.3667    XZZ       0.8687    YZZ     -76.2402
       ZZZ    -156.1273
    Hexadecapole Moments (Debye-Ang^3)
      XXXX    -218.8628   XXXY     -38.9567   XXYY    -477.6931
      XYYY      -2.2042   YYYY   -2230.9289   XXXZ      51.8912
      XXYZ     -14.4600   XYYZ      14.4083   YYYZ    -330.0714
      XXZZ   -1644.0686   XYZZ      -9.0322   YYZZ   -1790.9110
      XZZZ      54.1070   YZZZ     191.4488   ZZZZ   -6947.5064
    5th-Order Moments (Debye-Ang^4)
       500      11.6770    410      -4.6562    320     -75.3990
       230     226.4730    140     166.5034    050    2525.2862
       401       1.0176    311     534.4377    221     -60.6316
       131     423.0468    041    -166.6685    302     542.5025
       212     437.7294    122     196.7399    032     710.9421
       203     417.9824    113     302.8642    023     -87.6367
       104     389.8842    014    -994.1860    005   -3677.2877
 -----------------------------------------------------------------
 -----------------------------------------------------------------
                 RPA Excited-State Multipoles, State   10   
                  LMN = < X^L Y^M Z^N >
 -----------------------------------------------------------------
    Charge (ESU x 10^10)
                -0.0000
    Dipole Moment (Debye)
         X      -0.1530      Y      -8.0804      Z      22.1037
       Tot      23.5349
    Quadrupole Moments (Debye-Ang)
        XX    -135.5359     XY      -2.1803     YY    -113.3851
        XZ       3.2643     YZ      10.8821     ZZ    -141.4688
    Octopole Moments (Debye-Ang^2)
       XXX      11.4152    XXY       0.7060    XYY      17.9345
       YYY     -14.3696    XXZ      16.5929    XYZ      -3.2276
       YYZ      96.2063    XZZ     -30.9742    YZZ    -214.3221
       ZZZ     372.7833
    Hexadecapole Moments (Debye-Ang^3)
      XXXX    -214.4446   XXXY     -41.2043   XXYY    -472.4676
      XYYY     -15.1259   YYYY   -2224.4006   XXXZ      51.8265
      XXYZ      -6.9168   XYYZ      29.0403   YYYZ    -214.4933
      XXZZ   -1636.1522   XYZZ     -73.6900   YYZZ   -1927.3227
      XZZZ     172.0533   YZZZ    1012.1432   ZZZZ   -8805.7334
    5th-Order Moments (Debye-Ang^4)
       500      12.3003    410      -2.6158    320     -77.4767
       230     223.8544    140     143.2646    050    2383.7670
       401       6.9665    311     529.3503    221     -35.6118
       131     442.0974    041     224.8382    302     525.0318
       212     419.4419    122      78.4043    032     169.0297
       203     535.8904    113     462.8372    023    1729.0230
       104    -407.5271    014   -4542.2670    005    9379.7737
 -----------------------------------------------------------------
 -----------------------------------------------------------------
                 RPA Excited-State Multipoles, State   11   
                  LMN = < X^L Y^M Z^N >
 -----------------------------------------------------------------
    Charge (ESU x 10^10)
                -0.0000
    Dipole Moment (Debye)
         X       0.4459      Y      -5.2947      Z       9.3469
       Tot      10.7516
    Quadrupole Moments (Debye-Ang)
        XX    -135.5928     XY      -0.1428     YY    -115.3527
        XZ       3.5173     YZ       4.5222     ZZ    -147.7479
    Octopole Moments (Debye-Ang^2)
       XXX      12.4685    XXY       2.3860    XYY      20.7816
       YYY       1.4459    XXZ       8.9552    XYZ      -0.4512
       YYZ      52.1685    XZZ     -25.5944    YZZ    -213.7307
       ZZZ     245.9720
    Hexadecapole Moments (Debye-Ang^3)
      XXXX    -214.8355   XXXY     -37.7222   XXYY    -473.5936
      XYYY      -5.8571   YYYY   -2226.9927   XXXZ      52.0255
      XXYZ     -11.9402   XYYZ      31.4139   YYYZ    -236.8169
      XXZZ   -1640.2841   XYZZ     -50.6193   YYZZ   -1998.5745
      XZZZ     176.3926   YZZZ     892.7766   ZZZZ   -8723.6984
    5th-Order Moments (Debye-Ang^4)
       500      15.0702    410       0.7071    320     -72.6171
       230     234.4151    140     158.2151    050    2522.8166
       401      -4.5134    311     533.8499    221     -59.4604
       131     453.9296    041       6.6833    302     533.3013
       212     415.5028    122     106.6988    032     196.0565
       203     463.6844    113     512.7315    023    1109.9766
       104    -315.5644    014   -4675.8969    005    7642.1619
 -----------------------------------------------------------------
 -----------------------------------------------------------------
                 RPA Excited-State Multipoles, State   12   
                  LMN = < X^L Y^M Z^N >
 -----------------------------------------------------------------
    Charge (ESU x 10^10)
                -0.0000
    Dipole Moment (Debye)
         X       0.0737      Y      -7.6345      Z       7.9620
       Tot      11.0311
    Quadrupole Moments (Debye-Ang)
        XX    -135.7520     XY      -0.1099     YY    -115.3995
        XZ       3.6756     YZ       6.7878     ZZ    -131.3658
    Octopole Moments (Debye-Ang^2)
       XXX      11.7270    XXY       0.7139    XYY      19.2714
       YYY     -12.0858    XXZ       8.5059    XYZ      -2.3276
       YYZ      46.0144    XZZ     -26.8048    YZZ    -214.9115
       ZZZ     209.5673
    Hexadecapole Moments (Debye-Ang^3)
      XXXX    -215.1268   XXXY     -37.5248   XXYY    -473.6764
      XYYY      -7.1683   YYYY   -2232.0188   XXXZ      52.7304
      XXYZ      -9.8943   XYYZ      32.3964   YYYZ    -225.6232
      XXZZ   -1634.0227   XYZZ     -45.1340   YYZZ   -1946.0897
      XZZZ     167.2568   YZZZ     874.7171   ZZZZ   -8346.3501
    5th-Order Moments (Debye-Ang^4)
       500      12.8888    410      -2.3498    320     -75.4266
       230     225.4798    140     147.9592    050    2415.6856
       401      -5.2023    311     530.7582    221     -63.3783
       131     444.4746    041     -24.6520    302     530.8174
       212     414.6439    122     101.5628    032     174.6860
       203     454.8219    113     472.2982    023     968.1477
       104    -315.3496    014   -4483.7075    005    6921.7029
 -----------------------------------------------------------------
 -----------------------------------------------------------------
                 RPA Excited-State Multipoles, State   13   
                  LMN = < X^L Y^M Z^N >
 -----------------------------------------------------------------
    Charge (ESU x 10^10)
                -0.0000
    Dipole Moment (Debye)
         X       0.1120      Y      -7.4501      Z       9.2116
       Tot      11.8478
    Quadrupole Moments (Debye-Ang)
        XX    -135.8929     XY      -0.1612     YY    -114.7929
        XZ       3.7792     YZ       8.0756     ZZ    -127.4752
    Octopole Moments (Debye-Ang^2)
       XXX      11.7549    XXY       0.6943    XYY      19.3848
       YYY     -12.2482    XXZ       9.2642    XYZ      -2.3318
       YYZ      49.2328    XZZ     -28.9451    YZZ    -225.4518
       ZZZ     218.4790
    Hexadecapole Moments (Debye-Ang^3)
      XXXX    -215.9229   XXXY     -37.9882   XXYY    -474.3075
      XYYY      -5.9998   YYYY   -2220.8171   XXXZ      52.9681
      XXYZ      -9.0402   XYYZ      34.3030   YYYZ    -212.8570
      XXZZ   -1632.5999   XYZZ     -45.5885   YYZZ   -1932.4029
      XZZZ     172.0612   YZZZ     922.8641   ZZZZ   -8216.7215
    5th-Order Moments (Debye-Ang^4)
       500      12.5919    410      -3.1716    320     -75.5848
       230     223.8200    140     149.5259    050    2411.2079
       401      -3.5588    311     531.7704    221     -60.3330
       131     441.2458    041     -15.7496    302     527.8513
       212     408.5782    122      90.5332    032      98.6553
       203     456.0027    113     461.8457    023     956.5494
       104    -375.6234    014   -4753.3792    005    7011.7027
 -----------------------------------------------------------------
 -----------------------------------------------------------------
                 RPA Excited-State Multipoles, State   14   
                  LMN = < X^L Y^M Z^N >
 -----------------------------------------------------------------
    Charge (ESU x 10^10)
                 0.0000
    Dipole Moment (Debye)
         X       0.2317      Y      -6.5649      Z       7.3270
       Tot       9.8405
    Quadrupole Moments (Debye-Ang)
        XX    -153.1280     XY       1.0318     YY    -128.0422
        XZ       3.8039     YZ       7.0221     ZZ    -151.5955
    Octopole Moments (Debye-Ang^2)
       XXX      10.7628    XXY      -5.0233    XYY      17.8114
       YYY     -29.7411    XXZ      47.5787    XYZ      -2.6982
       YYZ      75.2381    XZZ     -24.0833    YZZ    -218.1557
       ZZZ     262.5803
    Hexadecapole Moments (Debye-Ang^3)
      XXXX    -365.9216   XXXY     -44.1075   XXYY    -544.6416
      XYYY     -16.8691   YYYY   -2525.9382   XXXZ      56.5664
      XXYZ      -1.3343   XYYZ      37.5337   YYYZ    -186.0048
      XXZZ   -1832.6592   XYZZ     -43.1239   YYZZ   -2176.2304
      XZZZ     172.8354   YZZZ     894.5119   ZZZZ   -9252.7016
    5th-Order Moments (Debye-Ang^4)
       500       0.2069    410     -54.2781    320     -97.1861
       230     138.7949    140      82.7399    050    1762.0540
       401     332.5616    311     561.1226    221      94.2489
       131     491.2738    041     633.3103    302     528.8303
       212     367.8246    122      95.6329    032       9.8080
       203    1242.0969    113     527.4407    023    1900.1243
       104    -246.9911    014   -4721.0397    005   10826.1266
 -----------------------------------------------------------------
 Total job time:  4916.48s(wall), 67659.19s(cpu) 
 Fri Jan 31 02:14:41 2025

        *************************************************************
        *                                                           *
        *  Thank you very much for using Q-Chem.  Have a nice day.  *
        *                                                           *
        *************************************************************


