
Running Job 1 of 1 Petunidin_Q2_tddft_full.in
qchem Petunidin_Q2_tddft_full.in_3362799.0 /data/brussel/103/vsc10365/activedata/TDDFTAnthocyanidines/qchem3362799/ 1
/apps/brussel/RL8/skylake/software/Q-Chem/6.2.0/exe/qcprog.exe_s Petunidin_Q2_tddft_full.in_3362799.0 /data/brussel/103/vsc10365/activedata/TDDFTAnthocyanidines/qchem3362799/
                  Welcome to Q-Chem
     A Quantum Leap Into The Future Of Chemistry


 Q-Chem 6.2, Q-Chem, Inc., Pleasanton, CA (2024)

 License issued to: SRG Prof. Dr. Frank De Proft, Vrije Universiteit Brussel

 E. Epifanovsky,  A. T. B. Gilbert,  Xintian Feng,  Joonho Lee,  Yuezhi Mao,  
 N. Mardirossian,  P. Pokhilko,  A. White,  M. Wormit,  M. P. Coons,  
 A. L. Dempwolff,  Zhengting Gan,  D. Hait,  P. R. Horn,  L. D. Jacobson,  
 I. Kaliman,  J. Kussmann,  A. W. Lange,  Ka Un Lao,  D. S. Levine,  Jie Liu,  
 S. C. McKenzie,  A. F. Morrison,  K. D. Nanda,  F. Plasser,  D. R. Rehn,  
 M. L. Vidal,  Zhi-Qiang You,  Ying Zhu,  Huseyin Aksu,  B. Alam,  
 B. Albrecht,  A. Aldossary,  E. Alguire,  J. H. Andersen,  
 J. E. Arias-Martinez,  V. Athavale,  D. Barton,  K. Begam,  A. Behn,  
 N. Bellonzi,  Y. A. Bernard,  E. J. Berquist,  H. Burton,  A. Carreras,  
 K. Carter-Fenk,  Mathew Chow,  Romit Chakraborty,  Chandrima Chakravarty,  
 Junhan Chen,  A. D. Chien,  K. D. Closser,  V. Cofer-Shabica,  L. Cunha,  
 S. Dasgupta,  Jia Deng,  Joseph Dickinson,  M. de Wergifosse,  
 M. Diedenhofen,  Hainam Do,  Wenjie Dou,  S. Ehlert,  Po-Tung Fang,  
 S. Fatehi,  Qingguo Feng,  Jonathan Fetherolf,  T. Friedhoff,  
 Thomas Froitzheim,  Sarai Folkestad,  B. Ganoe,  J. Gayvert,  Qinghui Ge,  
 G. Gidofalvi,  M. Gimferrer,  M. Goldey,  Montgomery Gray,  J. Gomes,  
 C. Gonzalez-Espinoza,  S. Gulania,  A. Gunina,  J. A. Gyamfi,  
 M. W. D. Hanson-Heine,  P. H. P. Harbach,  A. W. Hauser,  M. F. Herbst,  
 M. Hernandez Vera,  M. Hodecker,  Z. C. Holden,  S. Houck,  Xunkun Huang,  
 Kerwin Hui,  B. C. Huynh,  K. Ikeda,  M. Ivanov,  Nayanthara K. Jayadev,  
 Hyunjun Ji,  Zuxin Jin,  Hanjie Jiang,  Subrata Jana,  B. Kaduk,  
 S. Kaehler,  R. Kang,  K. Khistyaev,  Jaehoon Kim,  Yongbin Kim,  
 P. Klunzinger,  Z. Koczor-Benda,  Joong Hoon Koh,  D. Kosenkov,  
 Saikiran Kotaru,  L. Koulias,  T. Kowalczyk,  C. M. Krauter,  K. Kue,  
 A. Kunitsa,  T. Kus,  A. Landau,  K. V. Lawler,  D. Lefrancois,  S. Lehtola,  
 Rain Li,  Shaozhi Li,  Tao E. Li,  Yi-Pei Li,  Jiashu Liang,  M. Liebenthal,  
 Hung-Hsuan Lin,  You-Sheng Lin,  Fenglai Liu,  Kuan-Yu Liu,  Xiao Liu,  
 M. Loipersberger,  A. Luenser,  C. Malbon,  Aniket Mandal,  Manisha,  
 A. Manjanath,  P. Manohar,  E. Mansoor,  S. F. Manzer,  Shan-Ping Mao,  
 A. V. Marenich,  T. Markovich,  S. Mason,  F. Matz,  S. A. Maurer,  
 Samuel May,  Alexandra McIsaac,  P. F. McLaughlin,  M. F. S. J. Menger,  
 J.-M. Mewes,  S. A. Mewes,  P. Morgante,  Mohammad Mostafanejad,  
 Madhubani Mukherjee,  J. W. Mullinax,  Quyen Nguyen,  Avik Kumar Ojha,  
 K. J. Oosterbaan,  Eno Paenurk,  Xiaoliang Pan,  G. Paran,  V. Parravicini,  
 Alexander C. Paul,  Suranjan K. Paul,  F. Pavosevic,  Zheng Pei,  S. Prager,  
 E. I. Proynov,  E. Ramos,  B. Rana,  A. E. Rask,  A. Rettig,  R. M. Richard,  
 F. Rob,  E. Rossomme,  T. Scheele,  M. Scheurer,  M. Schneider,  
 P. E. Schneider,  Tim K. Schramm,  N. Sergueev,  S. M. Sharada,  
 Hengyuan Shen,  W. Skomorowski,  D. W. Small,  C. J. Stein,  
 Alistair J. Sterling,  Yingli Su,  Yu-Chuan Su,  E. J. Sundstrom,  
 J. Talbot,  Zhen Tao,  J. Thirman,  Hung-Yi Tsai,  T. Tsuchimochi,  
 N. M. Tubman,  C. Utku,  S. P. Veccham,  O. Vydrov,  Rahel Weiss,  
 J. Wenzel,  Jonathan Wong,  J. Witte,  H. Wu,  Yanze Wu,  A. Yamada,  
 Chou-Hsun Yang,  Kun Yao,  S. Yeganeh,  S. R. Yost,  Qi Yu,  A. Zech,  
 F. Zeller,  Chongxiao Zhao,  Igor Ying Zhang,  Xing Zhang,  Yu Zhang,  
 D. Zuev,  A. Aspuru-Guzik,  A. T. Bell,  N. A. Besley,  K. B. Bravaya,  
 B. R. Brooks,  D. Casanova,  Jeng-Da Chai,  Hsing-Ta Chen,  S. Coriani,  
 C. J. Cramer,  A. E. DePrince, III,  R. A. DiStasio Jr.,  A. Dreuw,  
 B. D. Dunietz,  T. R. Furlani,  W. A. Goddard III,  S. Grimme,  
 S. Hammes-Schiffer,  T. Head-Gordon,  W. J. Hehre,  Chao-Ping Hsu,  
 T.-C. Jagau,  Yousung Jung,  A. Klamt,  Jing Kong,  D. S. Lambrecht,  
 Xiangyuan Li,  WanZhen Liang,  N. J. Mayhall,  C. W. McCurdy,  J. B. Neaton,  
 T. Neudecker,  C. Ochsenfeld,  J. A. Parkhill,  R. Peverati,  
 V. A. Rassolov,  Haisheng Ren,  Yihan Shao,  L. V. Slipchenko,  
 R. P. Steele,  J. E. Subotnik,  A. J. W. Thom,  A. Tkatchenko,  
 D. G. Truhlar,  T. Van Voorhis,  Fan Wang,  T. A. Wesolowski,  K. B. Whaley,  
 H. L. Woodcock III,  P. M. Zimmerman,  S. Faraji,  P. M. W. Gill,  
 M. Head-Gordon,  J. M. Herbert,  A. I. Krylov

 Contributors to earlier versions of Q-Chem not listed above: 
 R. D. Adamson,  B. Austin,  R. Baer,  J. Baker,  G. J. O. Beran,  
 K. Brandhorst,  S. T. Brown,  E. F. C. Byrd,  Arup K. Chakraborty,  
 G. K. L. Chan,  Chun-Min Chang,  Yunqing Chen,  C.-L. Cheng,  
 Siu Hung Chien,  D. M. Chipman,  D. L. Crittenden,  H. Dachsel,  
 R. J. Doerksen,  A. D. Dutoi,  R. G. Edgar,  J. Fosso-Tande,  
 L. Fusti-Molnar,  D. Ghosh,  A. Ghysels,  A. Golubeva-Zadorozhnaya,  
 J. Gonthier,  M. S. Gordon,  S. R. Gwaltney,  G. Hawkins,  J. E. Herr,  
 A. Heyden,  S. Hirata,  E. G. Hohenstein,  G. Kedziora,  F. J. Keil,  
 C. Kelley,  Jihan Kim,  R. A. King,  R. Z. Khaliullin,  P. P. Korambath,  
 W. Kurlancheek,  A. Laurent,  A. M. Lee,  M. S. Lee,  S. V. Levchenko,  
 Ching Yeh Lin,  D. Liotard,  E. Livshits,  R. C. Lochan,  I. Lotan,  
 L. A. Martinez-Martinez,  P. E. Maslen,  N. Nair,  D. P. O'Neill,  
 D. Neuhauser,  E. Neuscamman,  C. M. Oana,  R. Olivares-Amaya,  R. Olson,  
 T. M. Perrine,  B. Peters,  P. A. Pieniazek,  A. Prociuk,  Y. M. Rhee,  
 J. Ritchie,  M. A. Rohrdanz,  E. Rosta,  N. J. Russ,  H. F. Schaefer III,  
 M. W. Schmidt,  N. E. Schultz,  S. Sharma,  N. Shenvi,  C. D. Sherrill,  
 A. C. Simmonett,  A. Sodt,  T. Stein,  D. Stuck,  K. S. Thanthiriwatte,  
 V. Vanovschi,  L. Vogt,  Tao Wang,  A. Warshel,  M. A. Watson,  
 C. F. Williams,  Q. Wu,  X. Xu,  Jun Yang,  W. Zhang,  Yan Zhao

   Please cite Q-Chem as follows:
  "Software for the frontiers of quantum chemistry:
   An overview of developments in the Q-Chem 5 package"
   J. Chem. Phys. 155, 084801 (2021)
   https://doi.org/10.1063/5.0055522 (open access)

 Q-Chem 6.2.0 for Intel X86 EM64T Linux

 Parts of Q-Chem use Armadillo 9.900.5 (Nocturnal Misbehaviour).
 http://arma.sourceforge.net/

 Q-Chem begins on Fri Jan 31 00:50:32 2025  

 Host: 
0

     Scratch files written to /data/brussel/103/vsc10365/activedata/TDDFTAnthocyanidines/qchem3362799//
 May224 |scratch|qcdevops|jenkins|workspace|build_RNUM -1
 Processing $rem in /apps/brussel/RL8/skylake/software/Q-Chem/6.2.0/config/preferences:
 Processing $rem in /user/brussel/103/vsc10365/.qchemrc:
 Symmetry turned off for PCM/SM12/SMD calculation

 Checking the input file for inconsistencies... 	...done.

--------------------------------------------------------------
User input:
--------------------------------------------------------------
$comment
TDDFT calculation of petunidin Q2 structure
nprocs=16
mem=64gb
$end

$molecule
0 1
C    0.7783321   -1.5838236   -4.0849116
C    0.7112781   -0.3947439   -4.8401081
C    0.4965083    0.8075362   -4.2134924
C    0.3362707    0.8700588   -2.7963960
C    0.4165795   -0.3511995   -2.0982873
C    0.6336820   -1.5789711   -2.7103676
C    0.1093373    2.0352897   -2.0655013
C   -0.0465574    2.0549344   -0.6610786
C    0.0569452    0.7698710   -0.0188499
O    0.2743845   -0.3321714   -0.7614519
C   -0.0402628    0.4745855    1.3947177
C    0.1599301   -0.8517655    1.8444733
C    0.0698587   -1.1469379    3.1895024
C   -0.2230074   -0.1372621    4.1217996
C   -0.4220534    1.1666422    3.6806983
C   -0.3304773    1.4776760    2.3345412
O    0.9891412   -2.7846419   -4.6938352
H    0.8297376   -0.4338706   -5.9167121
O    0.4227364    1.9882927   -4.8827283
H    0.6857124   -2.4897050   -2.1315609
H    0.0452007    2.9856842   -2.5792990
O   -0.2578233    3.1448159   -0.0173143
H    0.3846230   -1.6340416    1.1390510
O    0.2454250   -2.3799600    3.7469437
O   -0.3161995   -0.3940066    5.4557999
O   -0.7092990    2.1712107    4.5736538
H   -0.4850792    2.4933326    2.0123105
H    1.0669209   -2.6694718   -5.6519490
H    0.5505121    1.8424084   -5.8314985
C    0.5699664   -3.4769339    2.8860051
H   -0.7391309    1.8090786    5.4714504
H    0.6638870   -4.3436900    3.5349698
H    1.5156659   -3.2988944    2.3710183
H   -0.2251879   -3.6468498    2.1580368
H   -0.1433783   -1.3358397    5.6126309
$end

$rem
BASIS  =  def2-ma-TZVP
MEM_STATIC  =  2000
MEM_TOTAL  =  64000
METHOD  =  CAM-B3LYP
SOLVENT_METHOD = pcm
SYMMETRY_IGNORE  =  1
CIS_N_ROOTS = 7
CIS_SINGLETS = true
CIS_TRIPLETS = true
CISTR_PRINT = true
RPA = true
PRINT_ORBITALS = true
SCF_PRINT = 1
SCF_FINAL_PRINT = 2
PRINT_GENERAL_BASIS = true
CISTR_PRINT = true
PRINT_RADII_GYRE = true
MULTIPOLE_ORDER = 5
CIS_AMPL_PRINT = 5
CIS_AMPL_ANAL = true
STATE_ANALYSIS = true
$end

$pcm
Theory   CPCM
Method   SWIG
Solver   Inversion
Radii    Bondi
$end

$solvent
Dielectric         78.39
OpticalDielectric  1.777849
$end


--------------------------------------------------------------
 ----------------------------------------------------------------
             Standard Nuclear Orientation (Angstroms)
    I     Atom           X                Y                Z
 ----------------------------------------------------------------
    1      C       0.7783321000    -1.5838236000    -4.0849116000
    2      C       0.7112781000    -0.3947439000    -4.8401081000
    3      C       0.4965083000     0.8075362000    -4.2134924000
    4      C       0.3362707000     0.8700588000    -2.7963960000
    5      C       0.4165795000    -0.3511995000    -2.0982873000
    6      C       0.6336820000    -1.5789711000    -2.7103676000
    7      C       0.1093373000     2.0352897000    -2.0655013000
    8      C      -0.0465574000     2.0549344000    -0.6610786000
    9      C       0.0569452000     0.7698710000    -0.0188499000
   10      O       0.2743845000    -0.3321714000    -0.7614519000
   11      C      -0.0402628000     0.4745855000     1.3947177000
   12      C       0.1599301000    -0.8517655000     1.8444733000
   13      C       0.0698587000    -1.1469379000     3.1895024000
   14      C      -0.2230074000    -0.1372621000     4.1217996000
   15      C      -0.4220534000     1.1666422000     3.6806983000
   16      C      -0.3304773000     1.4776760000     2.3345412000
   17      O       0.9891412000    -2.7846419000    -4.6938352000
   18      H       0.8297376000    -0.4338706000    -5.9167121000
   19      O       0.4227364000     1.9882927000    -4.8827283000
   20      H       0.6857124000    -2.4897050000    -2.1315609000
   21      H       0.0452007000     2.9856842000    -2.5792990000
   22      O      -0.2578233000     3.1448159000    -0.0173143000
   23      H       0.3846230000    -1.6340416000     1.1390510000
   24      O       0.2454250000    -2.3799600000     3.7469437000
   25      O      -0.3161995000    -0.3940066000     5.4557999000
   26      O      -0.7092990000     2.1712107000     4.5736538000
   27      H      -0.4850792000     2.4933326000     2.0123105000
   28      H       1.0669209000    -2.6694718000    -5.6519490000
   29      H       0.5505121000     1.8424084000    -5.8314985000
   30      C       0.5699664000    -3.4769339000     2.8860051000
   31      H      -0.7391309000     1.8090786000     5.4714504000
   32      H       0.6638870000    -4.3436900000     3.5349698000
   33      H       1.5156659000    -3.2988944000     2.3710183000
   34      H      -0.2251879000    -3.6468498000     2.1580368000
   35      H      -0.1433783000    -1.3358397000     5.6126309000
 ----------------------------------------------------------------
 Nuclear Repulsion Energy =        1844.25899242 hartrees
 There are       82 alpha and       82 beta electrons
 Requested basis set is def2-ma-TZVP
 Basis set in general basis input format:
-----------------------------------------------------------------------
$basis
C    0
S    6    1.000000
   1.35753497E+04    2.22458144E-04 
   2.03523337E+03    1.72327383E-03 
   4.63225624E+02    8.92557153E-03 
   1.31200196E+02    3.57279845E-02 
   4.28530159E+01    1.10762599E-01 
   1.55841858E+01    2.42956276E-01 
S    2    1.000000
   6.20671385E+00    4.14402634E-01 
   2.57648965E+00    2.37449687E-01 
S    1    1.000000
   5.76963394E-01    1.00000000E+00 
S    1    1.000000
   2.29728314E-01    1.00000000E+00 
S    1    1.000000
   9.51644400E-02    1.00000000E+00 
S    1    1.000000
   4.84754014E-02    1.00000000E+00 
P    4    1.000000
   3.46972322E+01    5.33336578E-03 
   7.95826228E+00    3.58641091E-02 
   2.37808269E+00    1.42158733E-01 
   8.14332082E-01    3.42704718E-01 
P    1    1.000000
   2.88875473E-01    4.64458224E-01 
P    1    1.000000
   1.00568237E-01    2.49557899E-01 
D    1    1.000000
   1.09700000E+00    1.00000000E+00 
D    1    1.000000
   3.18000000E-01    1.00000000E+00 
F    1    1.000000
   7.61000000E-01    1.00000000E+00 
****
C    0
S    6    1.000000
   1.35753497E+04    2.22458144E-04 
   2.03523337E+03    1.72327383E-03 
   4.63225624E+02    8.92557153E-03 
   1.31200196E+02    3.57279845E-02 
   4.28530159E+01    1.10762599E-01 
   1.55841858E+01    2.42956276E-01 
S    2    1.000000
   6.20671385E+00    4.14402634E-01 
   2.57648965E+00    2.37449687E-01 
S    1    1.000000
   5.76963394E-01    1.00000000E+00 
S    1    1.000000
   2.29728314E-01    1.00000000E+00 
S    1    1.000000
   9.51644400E-02    1.00000000E+00 
S    1    1.000000
   4.84754014E-02    1.00000000E+00 
P    4    1.000000
   3.46972322E+01    5.33336578E-03 
   7.95826228E+00    3.58641091E-02 
   2.37808269E+00    1.42158733E-01 
   8.14332082E-01    3.42704718E-01 
P    1    1.000000
   2.88875473E-01    4.64458224E-01 
P    1    1.000000
   1.00568237E-01    2.49557899E-01 
D    1    1.000000
   1.09700000E+00    1.00000000E+00 
D    1    1.000000
   3.18000000E-01    1.00000000E+00 
F    1    1.000000
   7.61000000E-01    1.00000000E+00 
****
C    0
S    6    1.000000
   1.35753497E+04    2.22458144E-04 
   2.03523337E+03    1.72327383E-03 
   4.63225624E+02    8.92557153E-03 
   1.31200196E+02    3.57279845E-02 
   4.28530159E+01    1.10762599E-01 
   1.55841858E+01    2.42956276E-01 
S    2    1.000000
   6.20671385E+00    4.14402634E-01 
   2.57648965E+00    2.37449687E-01 
S    1    1.000000
   5.76963394E-01    1.00000000E+00 
S    1    1.000000
   2.29728314E-01    1.00000000E+00 
S    1    1.000000
   9.51644400E-02    1.00000000E+00 
S    1    1.000000
   4.84754014E-02    1.00000000E+00 
P    4    1.000000
   3.46972322E+01    5.33336578E-03 
   7.95826228E+00    3.58641091E-02 
   2.37808269E+00    1.42158733E-01 
   8.14332082E-01    3.42704718E-01 
P    1    1.000000
   2.88875473E-01    4.64458224E-01 
P    1    1.000000
   1.00568237E-01    2.49557899E-01 
D    1    1.000000
   1.09700000E+00    1.00000000E+00 
D    1    1.000000
   3.18000000E-01    1.00000000E+00 
F    1    1.000000
   7.61000000E-01    1.00000000E+00 
****
C    0
S    6    1.000000
   1.35753497E+04    2.22458144E-04 
   2.03523337E+03    1.72327383E-03 
   4.63225624E+02    8.92557153E-03 
   1.31200196E+02    3.57279845E-02 
   4.28530159E+01    1.10762599E-01 
   1.55841858E+01    2.42956276E-01 
S    2    1.000000
   6.20671385E+00    4.14402634E-01 
   2.57648965E+00    2.37449687E-01 
S    1    1.000000
   5.76963394E-01    1.00000000E+00 
S    1    1.000000
   2.29728314E-01    1.00000000E+00 
S    1    1.000000
   9.51644400E-02    1.00000000E+00 
S    1    1.000000
   4.84754014E-02    1.00000000E+00 
P    4    1.000000
   3.46972322E+01    5.33336578E-03 
   7.95826228E+00    3.58641091E-02 
   2.37808269E+00    1.42158733E-01 
   8.14332082E-01    3.42704718E-01 
P    1    1.000000
   2.88875473E-01    4.64458224E-01 
P    1    1.000000
   1.00568237E-01    2.49557899E-01 
D    1    1.000000
   1.09700000E+00    1.00000000E+00 
D    1    1.000000
   3.18000000E-01    1.00000000E+00 
F    1    1.000000
   7.61000000E-01    1.00000000E+00 
****
C    0
S    6    1.000000
   1.35753497E+04    2.22458144E-04 
   2.03523337E+03    1.72327383E-03 
   4.63225624E+02    8.92557153E-03 
   1.31200196E+02    3.57279845E-02 
   4.28530159E+01    1.10762599E-01 
   1.55841858E+01    2.42956276E-01 
S    2    1.000000
   6.20671385E+00    4.14402634E-01 
   2.57648965E+00    2.37449687E-01 
S    1    1.000000
   5.76963394E-01    1.00000000E+00 
S    1    1.000000
   2.29728314E-01    1.00000000E+00 
S    1    1.000000
   9.51644400E-02    1.00000000E+00 
S    1    1.000000
   4.84754014E-02    1.00000000E+00 
P    4    1.000000
   3.46972322E+01    5.33336578E-03 
   7.95826228E+00    3.58641091E-02 
   2.37808269E+00    1.42158733E-01 
   8.14332082E-01    3.42704718E-01 
P    1    1.000000
   2.88875473E-01    4.64458224E-01 
P    1    1.000000
   1.00568237E-01    2.49557899E-01 
D    1    1.000000
   1.09700000E+00    1.00000000E+00 
D    1    1.000000
   3.18000000E-01    1.00000000E+00 
F    1    1.000000
   7.61000000E-01    1.00000000E+00 
****
C    0
S    6    1.000000
   1.35753497E+04    2.22458144E-04 
   2.03523337E+03    1.72327383E-03 
   4.63225624E+02    8.92557153E-03 
   1.31200196E+02    3.57279845E-02 
   4.28530159E+01    1.10762599E-01 
   1.55841858E+01    2.42956276E-01 
S    2    1.000000
   6.20671385E+00    4.14402634E-01 
   2.57648965E+00    2.37449687E-01 
S    1    1.000000
   5.76963394E-01    1.00000000E+00 
S    1    1.000000
   2.29728314E-01    1.00000000E+00 
S    1    1.000000
   9.51644400E-02    1.00000000E+00 
S    1    1.000000
   4.84754014E-02    1.00000000E+00 
P    4    1.000000
   3.46972322E+01    5.33336578E-03 
   7.95826228E+00    3.58641091E-02 
   2.37808269E+00    1.42158733E-01 
   8.14332082E-01    3.42704718E-01 
P    1    1.000000
   2.88875473E-01    4.64458224E-01 
P    1    1.000000
   1.00568237E-01    2.49557899E-01 
D    1    1.000000
   1.09700000E+00    1.00000000E+00 
D    1    1.000000
   3.18000000E-01    1.00000000E+00 
F    1    1.000000
   7.61000000E-01    1.00000000E+00 
****
C    0
S    6    1.000000
   1.35753497E+04    2.22458144E-04 
   2.03523337E+03    1.72327383E-03 
   4.63225624E+02    8.92557153E-03 
   1.31200196E+02    3.57279845E-02 
   4.28530159E+01    1.10762599E-01 
   1.55841858E+01    2.42956276E-01 
S    2    1.000000
   6.20671385E+00    4.14402634E-01 
   2.57648965E+00    2.37449687E-01 
S    1    1.000000
   5.76963394E-01    1.00000000E+00 
S    1    1.000000
   2.29728314E-01    1.00000000E+00 
S    1    1.000000
   9.51644400E-02    1.00000000E+00 
S    1    1.000000
   4.84754014E-02    1.00000000E+00 
P    4    1.000000
   3.46972322E+01    5.33336578E-03 
   7.95826228E+00    3.58641091E-02 
   2.37808269E+00    1.42158733E-01 
   8.14332082E-01    3.42704718E-01 
P    1    1.000000
   2.88875473E-01    4.64458224E-01 
P    1    1.000000
   1.00568237E-01    2.49557899E-01 
D    1    1.000000
   1.09700000E+00    1.00000000E+00 
D    1    1.000000
   3.18000000E-01    1.00000000E+00 
F    1    1.000000
   7.61000000E-01    1.00000000E+00 
****
C    0
S    6    1.000000
   1.35753497E+04    2.22458144E-04 
   2.03523337E+03    1.72327383E-03 
   4.63225624E+02    8.92557153E-03 
   1.31200196E+02    3.57279845E-02 
   4.28530159E+01    1.10762599E-01 
   1.55841858E+01    2.42956276E-01 
S    2    1.000000
   6.20671385E+00    4.14402634E-01 
   2.57648965E+00    2.37449687E-01 
S    1    1.000000
   5.76963394E-01    1.00000000E+00 
S    1    1.000000
   2.29728314E-01    1.00000000E+00 
S    1    1.000000
   9.51644400E-02    1.00000000E+00 
S    1    1.000000
   4.84754014E-02    1.00000000E+00 
P    4    1.000000
   3.46972322E+01    5.33336578E-03 
   7.95826228E+00    3.58641091E-02 
   2.37808269E+00    1.42158733E-01 
   8.14332082E-01    3.42704718E-01 
P    1    1.000000
   2.88875473E-01    4.64458224E-01 
P    1    1.000000
   1.00568237E-01    2.49557899E-01 
D    1    1.000000
   1.09700000E+00    1.00000000E+00 
D    1    1.000000
   3.18000000E-01    1.00000000E+00 
F    1    1.000000
   7.61000000E-01    1.00000000E+00 
****
C    0
S    6    1.000000
   1.35753497E+04    2.22458144E-04 
   2.03523337E+03    1.72327383E-03 
   4.63225624E+02    8.92557153E-03 
   1.31200196E+02    3.57279845E-02 
   4.28530159E+01    1.10762599E-01 
   1.55841858E+01    2.42956276E-01 
S    2    1.000000
   6.20671385E+00    4.14402634E-01 
   2.57648965E+00    2.37449687E-01 
S    1    1.000000
   5.76963394E-01    1.00000000E+00 
S    1    1.000000
   2.29728314E-01    1.00000000E+00 
S    1    1.000000
   9.51644400E-02    1.00000000E+00 
S    1    1.000000
   4.84754014E-02    1.00000000E+00 
P    4    1.000000
   3.46972322E+01    5.33336578E-03 
   7.95826228E+00    3.58641091E-02 
   2.37808269E+00    1.42158733E-01 
   8.14332082E-01    3.42704718E-01 
P    1    1.000000
   2.88875473E-01    4.64458224E-01 
P    1    1.000000
   1.00568237E-01    2.49557899E-01 
D    1    1.000000
   1.09700000E+00    1.00000000E+00 
D    1    1.000000
   3.18000000E-01    1.00000000E+00 
F    1    1.000000
   7.61000000E-01    1.00000000E+00 
****
O    0
S    6    1.000000
   2.70323826E+04    2.17263025E-04 
   4.05238714E+03    1.68386622E-03 
   9.22327227E+02    8.73956163E-03 
   2.61240710E+02    3.52399688E-02 
   8.53546414E+01    1.11535191E-01 
   3.10350352E+01    2.55889540E-01 
S    2    1.000000
   1.22608607E+01    3.97687309E-01 
   4.99870760E+00    2.46278494E-01 
S    1    1.000000
   1.17031082E+00    1.00000000E+00 
S    1    1.000000
   4.64747410E-01    1.00000000E+00 
S    1    1.000000
   1.85045364E-01    1.00000000E+00 
S    1    1.000000
   7.02880263E-02    1.00000000E+00 
P    4    1.000000
   6.32749548E+01    6.06851034E-03 
   1.46270494E+01    4.19125758E-02 
   4.45012235E+00    1.61538411E-01 
   1.52757996E+00    3.57069513E-01 
P    1    1.000000
   5.29351179E-01    4.47942075E-01 
P    1    1.000000
   1.74784213E-01    2.44460697E-01 
P    1    1.000000
   5.11127457E-02    1.00000000E+00 
D    1    1.000000
   2.31400000E+00    1.00000000E+00 
D    1    1.000000
   6.45000000E-01    1.00000000E+00 
F    1    1.000000
   1.42800000E+00    1.00000000E+00 
****
C    0
S    6    1.000000
   1.35753497E+04    2.22458144E-04 
   2.03523337E+03    1.72327383E-03 
   4.63225624E+02    8.92557153E-03 
   1.31200196E+02    3.57279845E-02 
   4.28530159E+01    1.10762599E-01 
   1.55841858E+01    2.42956276E-01 
S    2    1.000000
   6.20671385E+00    4.14402634E-01 
   2.57648965E+00    2.37449687E-01 
S    1    1.000000
   5.76963394E-01    1.00000000E+00 
S    1    1.000000
   2.29728314E-01    1.00000000E+00 
S    1    1.000000
   9.51644400E-02    1.00000000E+00 
S    1    1.000000
   4.84754014E-02    1.00000000E+00 
P    4    1.000000
   3.46972322E+01    5.33336578E-03 
   7.95826228E+00    3.58641091E-02 
   2.37808269E+00    1.42158733E-01 
   8.14332082E-01    3.42704718E-01 
P    1    1.000000
   2.88875473E-01    4.64458224E-01 
P    1    1.000000
   1.00568237E-01    2.49557899E-01 
D    1    1.000000
   1.09700000E+00    1.00000000E+00 
D    1    1.000000
   3.18000000E-01    1.00000000E+00 
F    1    1.000000
   7.61000000E-01    1.00000000E+00 
****
C    0
S    6    1.000000
   1.35753497E+04    2.22458144E-04 
   2.03523337E+03    1.72327383E-03 
   4.63225624E+02    8.92557153E-03 
   1.31200196E+02    3.57279845E-02 
   4.28530159E+01    1.10762599E-01 
   1.55841858E+01    2.42956276E-01 
S    2    1.000000
   6.20671385E+00    4.14402634E-01 
   2.57648965E+00    2.37449687E-01 
S    1    1.000000
   5.76963394E-01    1.00000000E+00 
S    1    1.000000
   2.29728314E-01    1.00000000E+00 
S    1    1.000000
   9.51644400E-02    1.00000000E+00 
S    1    1.000000
   4.84754014E-02    1.00000000E+00 
P    4    1.000000
   3.46972322E+01    5.33336578E-03 
   7.95826228E+00    3.58641091E-02 
   2.37808269E+00    1.42158733E-01 
   8.14332082E-01    3.42704718E-01 
P    1    1.000000
   2.88875473E-01    4.64458224E-01 
P    1    1.000000
   1.00568237E-01    2.49557899E-01 
D    1    1.000000
   1.09700000E+00    1.00000000E+00 
D    1    1.000000
   3.18000000E-01    1.00000000E+00 
F    1    1.000000
   7.61000000E-01    1.00000000E+00 
****
C    0
S    6    1.000000
   1.35753497E+04    2.22458144E-04 
   2.03523337E+03    1.72327383E-03 
   4.63225624E+02    8.92557153E-03 
   1.31200196E+02    3.57279845E-02 
   4.28530159E+01    1.10762599E-01 
   1.55841858E+01    2.42956276E-01 
S    2    1.000000
   6.20671385E+00    4.14402634E-01 
   2.57648965E+00    2.37449687E-01 
S    1    1.000000
   5.76963394E-01    1.00000000E+00 
S    1    1.000000
   2.29728314E-01    1.00000000E+00 
S    1    1.000000
   9.51644400E-02    1.00000000E+00 
S    1    1.000000
   4.84754014E-02    1.00000000E+00 
P    4    1.000000
   3.46972322E+01    5.33336578E-03 
   7.95826228E+00    3.58641091E-02 
   2.37808269E+00    1.42158733E-01 
   8.14332082E-01    3.42704718E-01 
P    1    1.000000
   2.88875473E-01    4.64458224E-01 
P    1    1.000000
   1.00568237E-01    2.49557899E-01 
D    1    1.000000
   1.09700000E+00    1.00000000E+00 
D    1    1.000000
   3.18000000E-01    1.00000000E+00 
F    1    1.000000
   7.61000000E-01    1.00000000E+00 
****
C    0
S    6    1.000000
   1.35753497E+04    2.22458144E-04 
   2.03523337E+03    1.72327383E-03 
   4.63225624E+02    8.92557153E-03 
   1.31200196E+02    3.57279845E-02 
   4.28530159E+01    1.10762599E-01 
   1.55841858E+01    2.42956276E-01 
S    2    1.000000
   6.20671385E+00    4.14402634E-01 
   2.57648965E+00    2.37449687E-01 
S    1    1.000000
   5.76963394E-01    1.00000000E+00 
S    1    1.000000
   2.29728314E-01    1.00000000E+00 
S    1    1.000000
   9.51644400E-02    1.00000000E+00 
S    1    1.000000
   4.84754014E-02    1.00000000E+00 
P    4    1.000000
   3.46972322E+01    5.33336578E-03 
   7.95826228E+00    3.58641091E-02 
   2.37808269E+00    1.42158733E-01 
   8.14332082E-01    3.42704718E-01 
P    1    1.000000
   2.88875473E-01    4.64458224E-01 
P    1    1.000000
   1.00568237E-01    2.49557899E-01 
D    1    1.000000
   1.09700000E+00    1.00000000E+00 
D    1    1.000000
   3.18000000E-01    1.00000000E+00 
F    1    1.000000
   7.61000000E-01    1.00000000E+00 
****
C    0
S    6    1.000000
   1.35753497E+04    2.22458144E-04 
   2.03523337E+03    1.72327383E-03 
   4.63225624E+02    8.92557153E-03 
   1.31200196E+02    3.57279845E-02 
   4.28530159E+01    1.10762599E-01 
   1.55841858E+01    2.42956276E-01 
S    2    1.000000
   6.20671385E+00    4.14402634E-01 
   2.57648965E+00    2.37449687E-01 
S    1    1.000000
   5.76963394E-01    1.00000000E+00 
S    1    1.000000
   2.29728314E-01    1.00000000E+00 
S    1    1.000000
   9.51644400E-02    1.00000000E+00 
S    1    1.000000
   4.84754014E-02    1.00000000E+00 
P    4    1.000000
   3.46972322E+01    5.33336578E-03 
   7.95826228E+00    3.58641091E-02 
   2.37808269E+00    1.42158733E-01 
   8.14332082E-01    3.42704718E-01 
P    1    1.000000
   2.88875473E-01    4.64458224E-01 
P    1    1.000000
   1.00568237E-01    2.49557899E-01 
D    1    1.000000
   1.09700000E+00    1.00000000E+00 
D    1    1.000000
   3.18000000E-01    1.00000000E+00 
F    1    1.000000
   7.61000000E-01    1.00000000E+00 
****
C    0
S    6    1.000000
   1.35753497E+04    2.22458144E-04 
   2.03523337E+03    1.72327383E-03 
   4.63225624E+02    8.92557153E-03 
   1.31200196E+02    3.57279845E-02 
   4.28530159E+01    1.10762599E-01 
   1.55841858E+01    2.42956276E-01 
S    2    1.000000
   6.20671385E+00    4.14402634E-01 
   2.57648965E+00    2.37449687E-01 
S    1    1.000000
   5.76963394E-01    1.00000000E+00 
S    1    1.000000
   2.29728314E-01    1.00000000E+00 
S    1    1.000000
   9.51644400E-02    1.00000000E+00 
S    1    1.000000
   4.84754014E-02    1.00000000E+00 
P    4    1.000000
   3.46972322E+01    5.33336578E-03 
   7.95826228E+00    3.58641091E-02 
   2.37808269E+00    1.42158733E-01 
   8.14332082E-01    3.42704718E-01 
P    1    1.000000
   2.88875473E-01    4.64458224E-01 
P    1    1.000000
   1.00568237E-01    2.49557899E-01 
D    1    1.000000
   1.09700000E+00    1.00000000E+00 
D    1    1.000000
   3.18000000E-01    1.00000000E+00 
F    1    1.000000
   7.61000000E-01    1.00000000E+00 
****
O    0
S    6    1.000000
   2.70323826E+04    2.17263025E-04 
   4.05238714E+03    1.68386622E-03 
   9.22327227E+02    8.73956163E-03 
   2.61240710E+02    3.52399688E-02 
   8.53546414E+01    1.11535191E-01 
   3.10350352E+01    2.55889540E-01 
S    2    1.000000
   1.22608607E+01    3.97687309E-01 
   4.99870760E+00    2.46278494E-01 
S    1    1.000000
   1.17031082E+00    1.00000000E+00 
S    1    1.000000
   4.64747410E-01    1.00000000E+00 
S    1    1.000000
   1.85045364E-01    1.00000000E+00 
S    1    1.000000
   7.02880263E-02    1.00000000E+00 
P    4    1.000000
   6.32749548E+01    6.06851034E-03 
   1.46270494E+01    4.19125758E-02 
   4.45012235E+00    1.61538411E-01 
   1.52757996E+00    3.57069513E-01 
P    1    1.000000
   5.29351179E-01    4.47942075E-01 
P    1    1.000000
   1.74784213E-01    2.44460697E-01 
P    1    1.000000
   5.11127457E-02    1.00000000E+00 
D    1    1.000000
   2.31400000E+00    1.00000000E+00 
D    1    1.000000
   6.45000000E-01    1.00000000E+00 
F    1    1.000000
   1.42800000E+00    1.00000000E+00 
****
H    0
S    3    1.000000
   3.40613410E+01    6.02519780E-03 
   5.12357460E+00    4.50210940E-02 
   1.16466260E+00    2.01897260E-01 
S    1    1.000000
   3.27230410E-01    1.00000000E+00 
S    1    1.000000
   1.03072410E-01    1.00000000E+00 
P    1    1.000000
   8.00000000E-01    1.00000000E+00 
****
O    0
S    6    1.000000
   2.70323826E+04    2.17263025E-04 
   4.05238714E+03    1.68386622E-03 
   9.22327227E+02    8.73956163E-03 
   2.61240710E+02    3.52399688E-02 
   8.53546414E+01    1.11535191E-01 
   3.10350352E+01    2.55889540E-01 
S    2    1.000000
   1.22608607E+01    3.97687309E-01 
   4.99870760E+00    2.46278494E-01 
S    1    1.000000
   1.17031082E+00    1.00000000E+00 
S    1    1.000000
   4.64747410E-01    1.00000000E+00 
S    1    1.000000
   1.85045364E-01    1.00000000E+00 
S    1    1.000000
   7.02880263E-02    1.00000000E+00 
P    4    1.000000
   6.32749548E+01    6.06851034E-03 
   1.46270494E+01    4.19125758E-02 
   4.45012235E+00    1.61538411E-01 
   1.52757996E+00    3.57069513E-01 
P    1    1.000000
   5.29351179E-01    4.47942075E-01 
P    1    1.000000
   1.74784213E-01    2.44460697E-01 
P    1    1.000000
   5.11127457E-02    1.00000000E+00 
D    1    1.000000
   2.31400000E+00    1.00000000E+00 
D    1    1.000000
   6.45000000E-01    1.00000000E+00 
F    1    1.000000
   1.42800000E+00    1.00000000E+00 
****
H    0
S    3    1.000000
   3.40613410E+01    6.02519780E-03 
   5.12357460E+00    4.50210940E-02 
   1.16466260E+00    2.01897260E-01 
S    1    1.000000
   3.27230410E-01    1.00000000E+00 
S    1    1.000000
   1.03072410E-01    1.00000000E+00 
P    1    1.000000
   8.00000000E-01    1.00000000E+00 
****
H    0
S    3    1.000000
   3.40613410E+01    6.02519780E-03 
   5.12357460E+00    4.50210940E-02 
   1.16466260E+00    2.01897260E-01 
S    1    1.000000
   3.27230410E-01    1.00000000E+00 
S    1    1.000000
   1.03072410E-01    1.00000000E+00 
P    1    1.000000
   8.00000000E-01    1.00000000E+00 
****
O    0
S    6    1.000000
   2.70323826E+04    2.17263025E-04 
   4.05238714E+03    1.68386622E-03 
   9.22327227E+02    8.73956163E-03 
   2.61240710E+02    3.52399688E-02 
   8.53546414E+01    1.11535191E-01 
   3.10350352E+01    2.55889540E-01 
S    2    1.000000
   1.22608607E+01    3.97687309E-01 
   4.99870760E+00    2.46278494E-01 
S    1    1.000000
   1.17031082E+00    1.00000000E+00 
S    1    1.000000
   4.64747410E-01    1.00000000E+00 
S    1    1.000000
   1.85045364E-01    1.00000000E+00 
S    1    1.000000
   7.02880263E-02    1.00000000E+00 
P    4    1.000000
   6.32749548E+01    6.06851034E-03 
   1.46270494E+01    4.19125758E-02 
   4.45012235E+00    1.61538411E-01 
   1.52757996E+00    3.57069513E-01 
P    1    1.000000
   5.29351179E-01    4.47942075E-01 
P    1    1.000000
   1.74784213E-01    2.44460697E-01 
P    1    1.000000
   5.11127457E-02    1.00000000E+00 
D    1    1.000000
   2.31400000E+00    1.00000000E+00 
D    1    1.000000
   6.45000000E-01    1.00000000E+00 
F    1    1.000000
   1.42800000E+00    1.00000000E+00 
****
H    0
S    3    1.000000
   3.40613410E+01    6.02519780E-03 
   5.12357460E+00    4.50210940E-02 
   1.16466260E+00    2.01897260E-01 
S    1    1.000000
   3.27230410E-01    1.00000000E+00 
S    1    1.000000
   1.03072410E-01    1.00000000E+00 
P    1    1.000000
   8.00000000E-01    1.00000000E+00 
****
O    0
S    6    1.000000
   2.70323826E+04    2.17263025E-04 
   4.05238714E+03    1.68386622E-03 
   9.22327227E+02    8.73956163E-03 
   2.61240710E+02    3.52399688E-02 
   8.53546414E+01    1.11535191E-01 
   3.10350352E+01    2.55889540E-01 
S    2    1.000000
   1.22608607E+01    3.97687309E-01 
   4.99870760E+00    2.46278494E-01 
S    1    1.000000
   1.17031082E+00    1.00000000E+00 
S    1    1.000000
   4.64747410E-01    1.00000000E+00 
S    1    1.000000
   1.85045364E-01    1.00000000E+00 
S    1    1.000000
   7.02880263E-02    1.00000000E+00 
P    4    1.000000
   6.32749548E+01    6.06851034E-03 
   1.46270494E+01    4.19125758E-02 
   4.45012235E+00    1.61538411E-01 
   1.52757996E+00    3.57069513E-01 
P    1    1.000000
   5.29351179E-01    4.47942075E-01 
P    1    1.000000
   1.74784213E-01    2.44460697E-01 
P    1    1.000000
   5.11127457E-02    1.00000000E+00 
D    1    1.000000
   2.31400000E+00    1.00000000E+00 
D    1    1.000000
   6.45000000E-01    1.00000000E+00 
F    1    1.000000
   1.42800000E+00    1.00000000E+00 
****
O    0
S    6    1.000000
   2.70323826E+04    2.17263025E-04 
   4.05238714E+03    1.68386622E-03 
   9.22327227E+02    8.73956163E-03 
   2.61240710E+02    3.52399688E-02 
   8.53546414E+01    1.11535191E-01 
   3.10350352E+01    2.55889540E-01 
S    2    1.000000
   1.22608607E+01    3.97687309E-01 
   4.99870760E+00    2.46278494E-01 
S    1    1.000000
   1.17031082E+00    1.00000000E+00 
S    1    1.000000
   4.64747410E-01    1.00000000E+00 
S    1    1.000000
   1.85045364E-01    1.00000000E+00 
S    1    1.000000
   7.02880263E-02    1.00000000E+00 
P    4    1.000000
   6.32749548E+01    6.06851034E-03 
   1.46270494E+01    4.19125758E-02 
   4.45012235E+00    1.61538411E-01 
   1.52757996E+00    3.57069513E-01 
P    1    1.000000
   5.29351179E-01    4.47942075E-01 
P    1    1.000000
   1.74784213E-01    2.44460697E-01 
P    1    1.000000
   5.11127457E-02    1.00000000E+00 
D    1    1.000000
   2.31400000E+00    1.00000000E+00 
D    1    1.000000
   6.45000000E-01    1.00000000E+00 
F    1    1.000000
   1.42800000E+00    1.00000000E+00 
****
O    0
S    6    1.000000
   2.70323826E+04    2.17263025E-04 
   4.05238714E+03    1.68386622E-03 
   9.22327227E+02    8.73956163E-03 
   2.61240710E+02    3.52399688E-02 
   8.53546414E+01    1.11535191E-01 
   3.10350352E+01    2.55889540E-01 
S    2    1.000000
   1.22608607E+01    3.97687309E-01 
   4.99870760E+00    2.46278494E-01 
S    1    1.000000
   1.17031082E+00    1.00000000E+00 
S    1    1.000000
   4.64747410E-01    1.00000000E+00 
S    1    1.000000
   1.85045364E-01    1.00000000E+00 
S    1    1.000000
   7.02880263E-02    1.00000000E+00 
P    4    1.000000
   6.32749548E+01    6.06851034E-03 
   1.46270494E+01    4.19125758E-02 
   4.45012235E+00    1.61538411E-01 
   1.52757996E+00    3.57069513E-01 
P    1    1.000000
   5.29351179E-01    4.47942075E-01 
P    1    1.000000
   1.74784213E-01    2.44460697E-01 
P    1    1.000000
   5.11127457E-02    1.00000000E+00 
D    1    1.000000
   2.31400000E+00    1.00000000E+00 
D    1    1.000000
   6.45000000E-01    1.00000000E+00 
F    1    1.000000
   1.42800000E+00    1.00000000E+00 
****
H    0
S    3    1.000000
   3.40613410E+01    6.02519780E-03 
   5.12357460E+00    4.50210940E-02 
   1.16466260E+00    2.01897260E-01 
S    1    1.000000
   3.27230410E-01    1.00000000E+00 
S    1    1.000000
   1.03072410E-01    1.00000000E+00 
P    1    1.000000
   8.00000000E-01    1.00000000E+00 
****
H    0
S    3    1.000000
   3.40613410E+01    6.02519780E-03 
   5.12357460E+00    4.50210940E-02 
   1.16466260E+00    2.01897260E-01 
S    1    1.000000
   3.27230410E-01    1.00000000E+00 
S    1    1.000000
   1.03072410E-01    1.00000000E+00 
P    1    1.000000
   8.00000000E-01    1.00000000E+00 
****
H    0
S    3    1.000000
   3.40613410E+01    6.02519780E-03 
   5.12357460E+00    4.50210940E-02 
   1.16466260E+00    2.01897260E-01 
S    1    1.000000
   3.27230410E-01    1.00000000E+00 
S    1    1.000000
   1.03072410E-01    1.00000000E+00 
P    1    1.000000
   8.00000000E-01    1.00000000E+00 
****
C    0
S    6    1.000000
   1.35753497E+04    2.22458144E-04 
   2.03523337E+03    1.72327383E-03 
   4.63225624E+02    8.92557153E-03 
   1.31200196E+02    3.57279845E-02 
   4.28530159E+01    1.10762599E-01 
   1.55841858E+01    2.42956276E-01 
S    2    1.000000
   6.20671385E+00    4.14402634E-01 
   2.57648965E+00    2.37449687E-01 
S    1    1.000000
   5.76963394E-01    1.00000000E+00 
S    1    1.000000
   2.29728314E-01    1.00000000E+00 
S    1    1.000000
   9.51644400E-02    1.00000000E+00 
S    1    1.000000
   4.84754014E-02    1.00000000E+00 
P    4    1.000000
   3.46972322E+01    5.33336578E-03 
   7.95826228E+00    3.58641091E-02 
   2.37808269E+00    1.42158733E-01 
   8.14332082E-01    3.42704718E-01 
P    1    1.000000
   2.88875473E-01    4.64458224E-01 
P    1    1.000000
   1.00568237E-01    2.49557899E-01 
D    1    1.000000
   1.09700000E+00    1.00000000E+00 
D    1    1.000000
   3.18000000E-01    1.00000000E+00 
F    1    1.000000
   7.61000000E-01    1.00000000E+00 
****
H    0
S    3    1.000000
   3.40613410E+01    6.02519780E-03 
   5.12357460E+00    4.50210940E-02 
   1.16466260E+00    2.01897260E-01 
S    1    1.000000
   3.27230410E-01    1.00000000E+00 
S    1    1.000000
   1.03072410E-01    1.00000000E+00 
P    1    1.000000
   8.00000000E-01    1.00000000E+00 
****
H    0
S    3    1.000000
   3.40613410E+01    6.02519780E-03 
   5.12357460E+00    4.50210940E-02 
   1.16466260E+00    2.01897260E-01 
S    1    1.000000
   3.27230410E-01    1.00000000E+00 
S    1    1.000000
   1.03072410E-01    1.00000000E+00 
P    1    1.000000
   8.00000000E-01    1.00000000E+00 
****
H    0
S    3    1.000000
   3.40613410E+01    6.02519780E-03 
   5.12357460E+00    4.50210940E-02 
   1.16466260E+00    2.01897260E-01 
S    1    1.000000
   3.27230410E-01    1.00000000E+00 
S    1    1.000000
   1.03072410E-01    1.00000000E+00 
P    1    1.000000
   8.00000000E-01    1.00000000E+00 
****
H    0
S    3    1.000000
   3.40613410E+01    6.02519780E-03 
   5.12357460E+00    4.50210940E-02 
   1.16466260E+00    2.01897260E-01 
S    1    1.000000
   3.27230410E-01    1.00000000E+00 
S    1    1.000000
   1.03072410E-01    1.00000000E+00 
P    1    1.000000
   8.00000000E-01    1.00000000E+00 
****
H    0
S    3    1.000000
   3.40613410E+01    6.02519780E-03 
   5.12357460E+00    4.50210940E-02 
   1.16466260E+00    2.01897260E-01 
S    1    1.000000
   3.27230410E-01    1.00000000E+00 
S    1    1.000000
   1.03072410E-01    1.00000000E+00 
P    1    1.000000
   8.00000000E-01    1.00000000E+00 
****
$end
-----------------------------------------------------------------------
 There are 331 shells and 829 basis functions

 Total QAlloc Memory Limit  64000 MB
 Mega-Array Size      1956 MB
 MEM_STATIC part      2000 MB

 User-specified dielectric constants (eps_0 = 78.39, eps_inf = 1.78)
 Using C-PCM dielectric factor f(eps) = (eps-1)/eps = 0.987243
 Static dielectric constant eps = 78.39
 Discretize the solute cavity surface with Lebedev spheres
	Using 110 Lebedev grid points for each H atom
	Using 194 Lebedev grid points for other atoms
	Atomic van der Waals radii (Bondi set) will be scaled by 1.20
 Using smooth SwiG surface discretization
 Remove points where switching function is < 1.0e-08
 Keep 2365 surface tesserae and discard 3417 interior tesserae
 Molecular Surface Area = 326.688 Angst**2

 A cutoff of  1.0D-12 yielded  38201 shell pairs
 There are    224759 function pairs (    284611 Cartesian)
 Smallest overlap matrix eigenvalue = 3.86E-06

 Scale SEOQF with 1.000000e-01/1.000000e-01/1.000000e-02

 Standard Electronic Orientation quadrupole field applied
 Nucleus-field energy     =     0.0000000193 hartrees
 Guess from superposition of atomic densities
 Warning:  Energy on first SCF cycle will be non-variational
 SAD guess density has 164.000000 electrons

 -----------------------------------------------------------------------
  General SCF calculation program by
  Eric Jon Sundstrom, Paul Horn, Yuezhi Mao, Dmitri Zuev, Alec White,
  David Stuck, Shaama M.S., Shane Yost, Joonho Lee, David Small,
  Daniel Levine, Susi Lehtola, Hugh Burton, Evgeny Epifanovsky,
  Bang C. Huynh
 -----------------------------------------------------------------------
 Exchange:     0.1900 Hartree-Fock + 0.3500 B88 + 0.4600 muB88 + LR-HF
 Correlation:  0.1900 VWN5 + 0.8100 LYP
 Using SG-1 standard quadrature grid
 using 16 threads for integral computing
 -------------------------------------------------------
 OpenMP Integral computing Module                
 Release: version 1.0, May 2013, Q-Chem Inc. Pittsburgh 
 -------------------------------------------------------
 C-PCM solvent model [f = (eps-1)/eps], solve by matrix inversion
 DFT Correlation          Energy =  -6.69377107248136
 DFT Exchange             Energy = -102.74548116957672
 HF Exchange              Energy = -42.04689088818171
 One-Electron             Energy = -5211.45158929832724
 SCRF wf-dependent energy Energy =   0.00000000000000
 Total Coulomb            Energy = 2368.46755798060758
 Nuclear repulsion Energy = 1844.25899243830759
 A restricted SCF calculation will be
 performed using DIIS
 SCF converges when DIIS error is below 1.0e-08
 DFT Correlation          Energy =  -6.69377107248136
 DFT Exchange             Energy = -102.74548116957672
 HF Exchange              Energy = -42.04689088818171
 One-Electron             Energy = -5211.45158929832724
 SCRF wf-dependent energy Energy =   0.00000000000000
 Total Coulomb            Energy = 2368.46755798060758
 ---------------------------------------
  Cycle       Energy         DIIS error
 ---------------------------------------
 DFT Correlation          Energy =  -6.78168492443617
 DFT Exchange             Energy = -104.93707672789486
 HF Exchange              Energy = -40.67995580889581
 One-Electron             Energy = -5235.73461685864095
 SCRF wf-dependent energy Energy =   0.49542513500796
 Total Coulomb            Energy = 2400.27499814479597
 Nuclear repulsion Energy = 1844.25899243830759
    1   -1150.2111820097      2.01e-02  
 DFT Correlation          Energy =  -6.71995782380266
 DFT Exchange             Energy = -103.08698499493136
 HF Exchange              Energy = -40.16009765707378
 One-Electron             Energy = -5220.71943964395177
 SCRF wf-dependent energy Energy =   1.40751792391620
 Total Coulomb            Energy = 2382.07030080690629
 Nuclear repulsion Energy = 1844.25899243830759
    2   -1143.1039186018      2.19e-03  
 DFT Correlation          Energy =  -6.74722065768828
 DFT Exchange             Energy = -103.97334461487850
 HF Exchange              Energy = -40.42979030267907
 One-Electron             Energy = -5224.96578425133339
 SCRF wf-dependent energy Energy =   0.16863590651769
 Total Coulomb            Energy = 2388.26806170383088
 Nuclear repulsion Energy = 1844.25899243830759
    3   -1142.9496689506      2.81e-03  
 DFT Correlation          Energy =  -6.74980070659576
 DFT Exchange             Energy = -104.02142367670076
 HF Exchange              Energy = -40.44059132175953
 One-Electron             Energy = -5227.02342968264747
 SCRF wf-dependent energy Energy =   0.57596448449249
 Total Coulomb            Energy = 2389.96642104124567
 Nuclear repulsion Energy = 1844.25899243830759
    4   -1143.4204497779      4.78e-04  
 DFT Correlation          Energy =  -6.74928236689245
 DFT Exchange             Energy = -104.00503318839372
 HF Exchange              Energy = -40.43705149468219
 One-Electron             Energy = -5226.83586284999274
 SCRF wf-dependent energy Energy =   0.54530269817860
 Total Coulomb            Energy = 2389.78754400304251
 Nuclear repulsion Energy = 1844.25899243830759
    5   -1143.4338674237      1.62e-04  
 DFT Correlation          Energy =  -6.74907241413177
 DFT Exchange             Energy = -104.00451656111302
 HF Exchange              Energy = -40.43748179916029
 One-Electron             Energy = -5226.65396962223076
 SCRF wf-dependent energy Energy =   0.51375656866730
 Total Coulomb            Energy = 2389.63669677958342
 Nuclear repulsion Energy = 1844.25899243830759
    6   -1143.4353907604      5.49e-05  
 DFT Correlation          Energy =  -6.74905244377393
 DFT Exchange             Energy = -104.00299089535011
 HF Exchange              Energy = -40.43720253467711
 One-Electron             Energy = -5226.65407441065508
 SCRF wf-dependent energy Energy =   0.51513522483856
 Total Coulomb            Energy = 2389.63358088192490
 Nuclear repulsion Energy = 1844.25899243830759
    7   -1143.4355946101      1.39e-05  
 DFT Correlation          Energy =  -6.74910300431226
 DFT Exchange             Energy = -104.00444779292459
 HF Exchange              Energy = -40.43763246481957
 One-Electron             Energy = -5226.67772910237272
 SCRF wf-dependent energy Energy =   0.51664005795328
 Total Coulomb            Energy = 2389.65766531168902
 Nuclear repulsion Energy = 1844.25899243830759
    8   -1143.4356117394      4.06e-06  
 DFT Correlation          Energy =  -6.74909294994752
 DFT Exchange             Energy = -104.00411122734590
 HF Exchange              Energy = -40.43756697150069
 One-Electron             Energy = -5226.67098590369642
 SCRF wf-dependent energy Energy =   0.51555328000882
 Total Coulomb            Energy = 2389.65159594482748
 Nuclear repulsion Energy = 1844.25899243830759
    9   -1143.4356145565      1.81e-06  
 DFT Correlation          Energy =  -6.74909193494819
 DFT Exchange             Energy = -104.00414762963487
 HF Exchange              Energy = -40.43758625670303
 One-Electron             Energy = -5226.67006126704109
 SCRF wf-dependent energy Energy =   0.51527923322442
 Total Coulomb            Energy = 2389.65099987649774
 Nuclear repulsion Energy = 1844.25899243830759
   10   -1143.4356153893      7.69e-07  
 DFT Correlation          Energy =  -6.74909319346065
 DFT Exchange             Energy = -104.00415146400798
 HF Exchange              Energy = -40.43758680145366
 One-Electron             Energy = -5226.67031229724671
 SCRF wf-dependent energy Energy =   0.51520772731237
 Total Coulomb            Energy = 2389.65132801620666
 Nuclear repulsion Energy = 1844.25899243830759
   11   -1143.4356155403      3.54e-07  
 DFT Correlation          Energy =  -6.74909336732348
 DFT Exchange             Energy = -104.00416237685845
 HF Exchange              Energy = -40.43758965199898
 One-Electron             Energy = -5226.67064704831773
 SCRF wf-dependent energy Energy =   0.51532105014803
 Total Coulomb            Energy = 2389.65156337723056
 Nuclear repulsion Energy = 1844.25899243830759
   12   -1143.4356155743      1.55e-07  
 DFT Correlation          Energy =  -6.74909326705245
 DFT Exchange             Energy = -104.00416026720424
 HF Exchange              Energy = -40.43758884604124
 One-Electron             Energy = -5226.67058106608238
 SCRF wf-dependent energy Energy =   0.51531867585254
 Total Coulomb            Energy = 2389.65149675195153
 Nuclear repulsion Energy = 1844.25899243830759
   13   -1143.4356155788      7.73e-08  
 DFT Correlation          Energy =  -6.74909326854128
 DFT Exchange             Energy = -104.00415991740100
 HF Exchange              Energy = -40.43758866871042
 One-Electron             Energy = -5226.67065285714216
 SCRF wf-dependent energy Energy =   0.51535299455873
 Total Coulomb            Energy = 2389.65153369850759
 Nuclear repulsion Energy = 1844.25899243830759
   14   -1143.4356155803      2.57e-08  
 DFT Correlation          Energy =  -6.74909328537855
 DFT Exchange             Energy = -104.00416038553347
 HF Exchange              Energy = -40.43758875375246
 One-Electron             Energy = -5226.67068211504920
 SCRF wf-dependent energy Energy =   0.51536299336749
 Total Coulomb            Energy = 2389.65155352776492
 Nuclear repulsion Energy = 1844.25899243830759
   15   -1143.4356155804      1.73e-08  
   16   -1143.4356155803      6.17e-09  Convergence criterion met
 ---------------------------------------
 DFT Correlation          Energy =  -6.74909328537855
 DFT Exchange             Energy = -104.00416038553347
 HF Exchange              Energy = -40.43758875375246
 One-Electron             Energy = -5226.67068211504920
 SCRF wf-dependent energy Energy =   0.51536299336749
 Total Coulomb            Energy = 2389.65155352776492
 Final Alpha MO Eigenvalues
            1           2           3           4           5           6
    1 -19.3046689 -19.2483082 -19.2479638 -19.2458321 -19.2445628 -19.2360136
            7           8           9          10          11          12
    1 -19.1356729 -10.3518809 -10.3452743 -10.3413346 -10.3390543 -10.3238811
           13          14          15          16          17          18
    1 -10.3231705 -10.3186556 -10.3157340 -10.2954356 -10.2820311 -10.2777817
           19          20          21          22          23          24
    1 -10.2759003 -10.2617180 -10.2569671 -10.2548387 -10.2524982  -1.2302695
           25          26          27          28          29          30
    1  -1.1769814  -1.1635897  -1.1587197  -1.1533338  -1.1360067  -1.0640058
           31          32          33          34          35          36
    1  -0.9714612  -0.9522535  -0.9019220  -0.8872840  -0.8494849  -0.8386215
           37          38          39          40          41          42
    1  -0.8223613  -0.7910853  -0.7686624  -0.7464297  -0.7123027  -0.7087449
           43          44          45          46          47          48
    1  -0.6961451  -0.6759273  -0.6462418  -0.6369869  -0.6317287  -0.6036469
           49          50          51          52          53          54
    1  -0.5990141  -0.5862488  -0.5741266  -0.5699836  -0.5613579  -0.5534807
           55          56          57          58          59          60
    1  -0.5461866  -0.5179378  -0.5165237  -0.5164469  -0.5128422  -0.5104225
           61          62          63          64          65          66
    1  -0.5007776  -0.4967868  -0.4866518  -0.4848330  -0.4694918  -0.4612577
           67          68          69          70          71          72
    1  -0.4572470  -0.4549389  -0.4490216  -0.4447772  -0.4342876  -0.4326970
           73          74          75          76          77          78
    1  -0.4281484  -0.4180190  -0.4117023  -0.3866351  -0.3368015  -0.3181445
           79          80          81          82          83          84
    1  -0.3054918  -0.2920016  -0.2901371  -0.2384560  -0.0713793   0.0177090
           85          86          87          88          89          90
    1   0.0245761   0.0306686   0.0339491   0.0401864   0.0428736   0.0449163
           91          92          93          94          95          96
    1   0.0469518   0.0596133   0.0616947   0.0654942   0.0736542   0.0762784
           97          98          99         100         101         102
    1   0.0842311   0.0884140   0.0898916   0.0913478   0.1018750   0.1046844
          103         104         105         106         107         108
    1   0.1093874   0.1101775   0.1133509   0.1170823   0.1228688   0.1326202
          109         110         111         112         113         114
    1   0.1347933   0.1440178   0.1458121   0.1487211   0.1507766   0.1543141
          115         116         117         118         119         120
    1   0.1589878   0.1642539   0.1692938   0.1778401   0.1821310   0.1869264
          121         122         123         124         125         126
    1   0.1884033   0.1889231   0.1961418   0.2088937   0.2154461   0.2159990
          127         128         129         130         131         132
    1   0.2169802   0.2264404   0.2271604   0.2287146   0.2406223   0.2421454
          133         134         135         136         137         138
    1   0.2429467   0.2462198   0.2510799   0.2512906   0.2555968   0.2572774
          139         140         141         142         143         144
    1   0.2698362   0.2728407   0.2801765   0.2833324   0.2860876   0.2914619
          145         146         147         148         149         150
    1   0.2952199   0.2959178   0.2988353   0.3079202   0.3102975   0.3123753
          151         152         153         154         155         156
    1   0.3176745   0.3200839   0.3237582   0.3253128   0.3298196   0.3341200
          157         158         159         160         161         162
    1   0.3375988   0.3470013   0.3500570   0.3521766   0.3539729   0.3587654
          163         164         165         166         167         168
    1   0.3636844   0.3666490   0.3682652   0.3729142   0.3830461   0.3873296
          169         170         171         172         173         174
    1   0.3892244   0.3901831   0.3939851   0.3993178   0.4014013   0.4123252
          175         176         177         178         179         180
    1   0.4209174   0.4245548   0.4267526   0.4301797   0.4326060   0.4377003
          181         182         183         184         185         186
    1   0.4432387   0.4463676   0.4506128   0.4538589   0.4593742   0.4614961
          187         188         189         190         191         192
    1   0.4626631   0.4692703   0.4779207   0.4800721   0.4844969   0.4875242
          193         194         195         196         197         198
    1   0.4916906   0.4963671   0.4999316   0.5025267   0.5055182   0.5142481
          199         200         201         202         203         204
    1   0.5191481   0.5258547   0.5301353   0.5316935   0.5399252   0.5471951
          205         206         207         208         209         210
    1   0.5535291   0.5587744   0.5671080   0.5715234   0.5767071   0.5794370
          211         212         213         214         215         216
    1   0.5856001   0.5889567   0.5920612   0.5970307   0.6025895   0.6079877
          217         218         219         220         221         222
    1   0.6166282   0.6214322   0.6225842   0.6366194   0.6375075   0.6407326
          223         224         225         226         227         228
    1   0.6439063   0.6481592   0.6549133   0.6584817   0.6622044   0.6644147
          229         230         231         232         233         234
    1   0.6655353   0.6740020   0.6796058   0.6857732   0.6892673   0.6985248
          235         236         237         238         239         240
    1   0.7054044   0.7084508   0.7121440   0.7141862   0.7211952   0.7285824
          241         242         243         244         245         246
    1   0.7364305   0.7401881   0.7426671   0.7496780   0.7557498   0.7597373
          247         248         249         250         251         252
    1   0.7703980   0.7722250   0.7790066   0.7817476   0.7937337   0.7952826
          253         254         255         256         257         258
    1   0.7976343   0.8004620   0.8025141   0.8050052   0.8160330   0.8191173
          259         260         261         262         263         264
    1   0.8255158   0.8304370   0.8343891   0.8391640   0.8428192   0.8454431
          265         266         267         268         269         270
    1   0.8548167   0.8684093   0.8769243   0.8824093   0.8878682   0.8991140
          271         272         273         274         275         276
    1   0.9018066   0.9065809   0.9096522   0.9197259   0.9227155   0.9276702
          277         278         279         280         281         282
    1   0.9380425   0.9418576   0.9455658   0.9589711   0.9688649   0.9852764
          283         284         285         286         287         288
    1   0.9969101   0.9996113   1.0095324   1.0323714   1.0362626   1.0430598
          289         290         291         292         293         294
    1   1.0439863   1.0522104   1.0686988   1.0762506   1.0784953   1.0863389
          295         296         297         298         299         300
    1   1.0970835   1.1092700   1.1143380   1.1259748   1.1278823   1.1314131
          301         302         303         304         305         306
    1   1.1349527   1.1512456   1.1517950   1.1689759   1.1763379   1.1793107
          307         308         309         310         311         312
    1   1.1856406   1.1867290   1.1972164   1.2015869   1.2044514   1.2120014
          313         314         315         316         317         318
    1   1.2199402   1.2292256   1.2414889   1.2439622   1.2566700   1.2843413
          319         320         321         322         323         324
    1   1.2919013   1.2985694   1.3066606   1.3213897   1.3243704   1.3276180
          325         326         327         328         329         330
    1   1.3450109   1.3498204   1.3738006   1.3816657   1.3898257   1.3935549
          331         332         333         334         335         336
    1   1.4007810   1.4083845   1.4137508   1.4208930   1.4393259   1.4473567
          337         338         339         340         341         342
    1   1.4536791   1.4632526   1.4766573   1.4788072   1.4889227   1.4964217
          343         344         345         346         347         348
    1   1.5017016   1.5059812   1.5137134   1.5368673   1.5449327   1.5481261
          349         350         351         352         353         354
    1   1.5523871   1.5620697   1.5663623   1.5766162   1.5837048   1.5884023
          355         356         357         358         359         360
    1   1.5943268   1.5990000   1.6097381   1.6196923   1.6243529   1.6298038
          361         362         363         364         365         366
    1   1.6510303   1.6519570   1.6556337   1.6668183   1.6868498   1.6915866
          367         368         369         370         371         372
    1   1.7015298   1.7040504   1.7169692   1.7193631   1.7229081   1.7315992
          373         374         375         376         377         378
    1   1.7356692   1.7398778   1.7560101   1.7608055   1.7639828   1.7641190
          379         380         381         382         383         384
    1   1.7729788   1.7749280   1.7990281   1.8013824   1.8076350   1.8280552
          385         386         387         388         389         390
    1   1.8433106   1.8483140   1.8586753   1.8691970   1.8737817   1.8833842
          391         392         393         394         395         396
    1   1.9025987   1.9158219   1.9205333   1.9224813   1.9309591   1.9466941
          397         398         399         400         401         402
    1   1.9499246   1.9575774   1.9595430   1.9765234   1.9813988   1.9992173
          403         404         405         406         407         408
    1   2.0017205   2.0146729   2.0247695   2.0332902   2.0397543   2.0426682
          409         410         411         412         413         414
    1   2.0624038   2.0641220   2.0716732   2.0791736   2.0881595   2.0906015
          415         416         417         418         419         420
    1   2.1062488   2.1154216   2.1187832   2.1362230   2.1404584   2.1565264
          421         422         423         424         425         426
    1   2.1639611   2.1719993   2.1755150   2.1876537   2.1968221   2.2014847
          427         428         429         430         431         432
    1   2.2072489   2.2087768   2.2146488   2.2202026   2.2382098   2.2463849
          433         434         435         436         437         438
    1   2.2507268   2.2598174   2.2678911   2.2736215   2.2801164   2.2923701
          439         440         441         442         443         444
    1   2.2972972   2.3073015   2.3152107   2.3354706   2.3424229   2.3506571
          445         446         447         448         449         450
    1   2.3549567   2.3610715   2.3656616   2.3825717   2.3912933   2.3963303
          451         452         453         454         455         456
    1   2.4035706   2.4306669   2.4471221   2.4514056   2.4586821   2.4673087
          457         458         459         460         461         462
    1   2.4787858   2.4856558   2.5035076   2.5126900   2.5248591   2.5368021
          463         464         465         466         467         468
    1   2.5431237   2.5505295   2.5598143   2.5786371   2.5880267   2.5926690
          469         470         471         472         473         474
    1   2.6002715   2.6054290   2.6082410   2.6191896   2.6283858   2.6330109
          475         476         477         478         479         480
    1   2.6572460   2.6684856   2.6793427   2.6876085   2.6931384   2.6948309
          481         482         483         484         485         486
    1   2.6999984   2.7057502   2.7069224   2.7271243   2.7328546   2.7434357
          487         488         489         490         491         492
    1   2.7490468   2.7659342   2.7759856   2.7796713   2.7872222   2.7957089
          493         494         495         496         497         498
    1   2.8006218   2.8074449   2.8105802   2.8163857   2.8269731   2.8399315
          499         500         501         502         503         504
    1   2.8616287   2.8655854   2.8723569   2.8730822   2.8793540   2.8862621
          505         506         507         508         509         510
    1   2.8922716   2.8965277   2.9007918   2.9117642   2.9230326   2.9252376
          511         512         513         514         515         516
    1   2.9287560   2.9489521   2.9613266   2.9661978   2.9693083   2.9767225
          517         518         519         520         521         522
    1   2.9811988   2.9884193   2.9939504   2.9978341   3.0028619   3.0112882
          523         524         525         526         527         528
    1   3.0311519   3.0323169   3.0361443   3.0398778   3.0521874   3.0537357
          529         530         531         532         533         534
    1   3.0585018   3.0668160   3.0800230   3.0868427   3.1062505   3.1091286
          535         536         537         538         539         540
    1   3.1119634   3.1257809   3.1341920   3.1408266   3.1419982   3.1546697
          541         542         543         544         545         546
    1   3.1583532   3.1761579   3.1816675   3.1938014   3.1970799   3.1987500
          547         548         549         550         551         552
    1   3.2067252   3.2196336   3.2230699   3.2292298   3.2317168   3.2416975
          553         554         555         556         557         558
    1   3.2447514   3.2506189   3.2548562   3.2633736   3.2655741   3.2796798
          559         560         561         562         563         564
    1   3.2818652   3.2900029   3.2994214   3.3058054   3.3268734   3.3310279
          565         566         567         568         569         570
    1   3.3338274   3.3356064   3.3429200   3.3448969   3.3492753   3.3626786
          571         572         573         574         575         576
    1   3.3660267   3.3707770   3.3758507   3.3957474   3.3993358   3.4069325
          577         578         579         580         581         582
    1   3.4093526   3.4163672   3.4174169   3.4261127   3.4339100   3.4422385
          583         584         585         586         587         588
    1   3.4506482   3.4588871   3.4638063   3.4659505   3.4781054   3.4785421
          589         590         591         592         593         594
    1   3.4824515   3.4833594   3.4940045   3.4982313   3.5078152   3.5180541
          595         596         597         598         599         600
    1   3.5371373   3.5402831   3.5413633   3.5441936   3.5536404   3.5696322
          601         602         603         604         605         606
    1   3.5774428   3.5840432   3.5887594   3.5975445   3.6021849   3.6173623
          607         608         609         610         611         612
    1   3.6227712   3.6346234   3.6381374   3.6407993   3.6587277   3.6718486
          613         614         615         616         617         618
    1   3.6742928   3.6774993   3.6920287   3.6952314   3.7030528   3.7145223
          619         620         621         622         623         624
    1   3.7355079   3.7505258   3.7562948   3.7615043   3.7711282   3.7751872
          625         626         627         628         629         630
    1   3.7994823   3.8486823   3.8554188   3.8611212   3.8875375   3.8966067
          631         632         633         634         635         636
    1   3.9054321   3.9093964   3.9418143   3.9551721   3.9615856   3.9714704
          637         638         639         640         641         642
    1   3.9881214   4.0201184   4.0373102   4.0439584   4.0470296   4.0530629
          643         644         645         646         647         648
    1   4.0756315   4.0855935   4.0931029   4.1138074   4.1228817   4.1314536
          649         650         651         652         653         654
    1   4.1516715   4.1654114   4.2074847   4.2220579   4.2223303   4.2279212
          655         656         657         658         659         660
    1   4.2315638   4.2352050   4.2449697   4.2574044   4.2689852   4.2794462
          661         662         663         664         665         666
    1   4.2869074   4.2916330   4.2993615   4.3252729   4.3325853   4.3400086
          667         668         669         670         671         672
    1   4.3684568   4.3739907   4.3860646   4.4149067   4.4181890   4.4285243
          673         674         675         676         677         678
    1   4.4526426   4.4731477   4.4817734   4.5023097   4.5211157   4.5288375
          679         680         681         682         683         684
    1   4.5516468   4.5724979   4.5996863   4.6044919   4.6251004   4.6322044
          685         686         687         688         689         690
    1   4.6495881   4.6566126   4.6724562   4.6806824   4.6879351   4.6974782
          691         692         693         694         695         696
    1   4.7180818   4.7636905   4.8175370   4.8277217   4.8378112   4.8696990
          697         698         699         700         701         702
    1   4.9067350   4.9345566   4.9422101   4.9622433   4.9893913   4.9970022
          703         704         705         706         707         708
    1   5.0239711   5.0479822   5.0680363   5.1105980   5.1390311   5.1404403
          709         710         711         712         713         714
    1   5.1659469   5.2023212   5.2392979   5.2570786   5.2799216   5.2802494
          715         716         717         718         719         720
    1   5.3047452   5.3122080   5.3138451   5.3227960   5.3304527   5.3582841
          721         722         723         724         725         726
    1   5.3740049   5.3765124   5.3936701   5.4126587   5.4309804   5.4761141
          727         728         729         730         731         732
    1   5.5053922   5.5149635   5.5268796   5.5324515   5.5410344   5.5583270
          733         734         735         736         737         738
    1   5.5596399   5.5736702   5.5875778   5.6024491   5.6702820   5.6763109
          739         740         741         742         743         744
    1   5.6958530   5.7108792   5.7196837   5.7848313   5.7936055   5.8114243
          745         746         747         748         749         750
    1   5.8471678   5.8508784   5.9031673   5.9240513   5.9262291   6.0044170
          751         752         753         754         755         756
    1   6.0196507   6.0309997   6.0417999   6.1136168   6.1451731   6.1548218
          757         758         759         760         761         762
    1   6.2176414   6.2301970   6.2760496   6.3400569   6.4065399   6.4535487
          763         764         765         766         767         768
    1   6.4541912   6.4612893   6.4656701   6.4709732   6.4746529   6.4912305
          769         770         771         772         773         774
    1   6.4997652   6.5117754   6.5224824   6.5349337   6.5802498   6.6579192
          775         776         777         778         779         780
    1   6.6820010   6.6952242   6.7346647   6.7673213   6.7736636   6.7855245
          781         782         783         784         785         786
    1   6.7886943   6.8344206   6.8894430   6.9173230   6.9235812   6.9252156
          787         788         789         790         791         792
    1   6.9256791   6.9293129   6.9469397   6.9785784   7.0356647   7.0504764
          793         794         795         796         797         798
    1   7.0721496   7.1033177   7.1307468   7.1831038   7.2356281   7.2812042
          799         800         801         802         803         804
    1   7.2845758   7.3338268   7.3722575   7.4071616   7.4831792   7.5126487
          805         806         807         808         809         810
    1   7.5596943   7.5841120  22.4519773  22.4928317  22.6034659  22.8169569
          811         812         813         814         815         816
    1  22.8625630  22.8973054  22.9339040  22.9848433  23.0379913  23.0815629
          817         818         819         820         821         822
    1  23.1003864  23.1331497  23.2242179  23.3868845  23.6196016  23.6973715
          823         824         825         826         827         828
    1  44.0354983  44.1094694  44.1457997  44.2119374  44.2597781  44.4228713
          829
    1  44.7281918
 SCF time:   CPU 5979.00s  wall 532.00s 
 DFT Correlation          Energy =  -6.74909328537855
 DFT Exchange             Energy = -104.00416038553347
 HF Exchange              Energy = -40.43758875375246
 One-Electron             Energy = -5226.67068211504920
 SCRF wf-dependent energy Energy =   0.51536299336749
 Total Coulomb            Energy = 2389.65155352776492
 Nuclear repulsion Energy = 1844.25899243830759

************** Final PCM Free Energy Summary **************
 G_electrostatic  =      -0.05704490 hartree =     -35.79621796 kcal/mol
 G_cavitation     =       0.00000000 hartree =       0.00000000 kcal/mol
 G_dispersion     =       0.00000000 hartree =       0.00000000 kcal/mol
 G_repulsion      =       0.00000000 hartree =       0.00000000 kcal/mol
 --------------------------------------------------
 Non-electrostatic Free Energy =       0.00000000 hartree =       0.00000000 kcal/mol
 Total                         =      -0.05704490 hartree =     -35.79621796 kcal/mol
 --------------------------------------------------
 SCF Energy (H0 + V/2)                       =   -1143.43561558 
 Solute Internal Energy (H0)                 =   -1143.37857068 
 Total Free Energy (H0 + V/2 + non-elec)     =   -1143.43561558 hartree
                                             = -717516.68175774 kcal/mol
***********************************************************

 SCF   energy = -1143.43561558
 Total energy = -1143.43561558
 MAX_CIS_SUBSPACE fits in available memory
 Direct TDDFT/TDA calculation will be performed
 Exchange:     0.1900 Hartree-Fock + 0.3500 B88 + 0.4600 muB88 + LR-HF
 Correlation:  0.1900 VWN5 + 0.8100 LYP
 Using SG-1 standard quadrature grid
 Triplet excitation energies requested
 Singlet excitation energies requested
 Adding PCM contribution to the XC response (LR-PCM)
 Optical dielectric constant (eps_inf) =  1.78
 CIS energy converged when residual is below 10e- 6
 ---------------------------------------------------
 Iter    Rts Conv    Rts Left    Ttl Dev     Max Dev
 ---------------------------------------------------
   1         0           7      0.000859    0.000140
   2         0           7      0.000290    0.000056
   3         0           7      0.000113    0.000032
   4         0           7      0.000274    0.000223
   5         2           5      0.000112    0.000085
   6         3           4      0.000042    0.000032
   7         5           2      0.000015    0.000012
   8         6           1      0.000007    0.000005
   9         6           1      0.000003    0.000001
  10         7           0      0.000002    0.000000    Roots Converged
 ---------------------------------------------------
 Triplets done: starting singlet calculation
 ---------------------------------------------------
 Iter    Rts Conv    Rts Left    Ttl Dev     Max Dev
 ---------------------------------------------------
  11         0           7      0.002037    0.000462
  12         0           7      0.000515    0.000132
  13         0           7      0.000324    0.000112
  14         0           7      0.000209    0.000072
  15         0           7      0.000110    0.000047
  16         2           5      0.000054    0.000024
  17         4           3      0.000022    0.000009
  18         4           3      0.000011    0.000004
  19         5           2      0.000006    0.000002
  20         6           1      0.000004    0.000001
  21         7           0      0.000004    0.000001    Roots Converged
 ---------------------------------------------------
 
 ---------------------------------------------------
         TDDFT/TDA Excitation Energies              
 ---------------------------------------------------

 Excited state   1: excitation energy (eV) =       1.0902
 Total energy for state   1:                 -1143.39555195 au
    Multiplicity: Triplet
    Trans. Mom.:  0.0000 X   0.0000 Y   0.0000 Z
    Strength   :     0.0000000000
    D(   69) --> V(    1) amplitude = -0.0813
    D(   77) --> V(    1) amplitude =  0.0802
    D(   78) --> V(    1) amplitude = -0.1162
    D(   81) --> V(    1) amplitude = -0.1112
    D(   82) --> V(    1) amplitude =  0.9629
    D(   82) --> V(   11) amplitude = -0.0748

 Excited state   2: excitation energy (eV) =       2.5568
 Total energy for state   2:                 -1143.34165634 au
    Multiplicity: Singlet
    Trans. Mom.:  0.3204 X   0.2767 Y  -3.5533 Z
    Strength   :     0.8021021134
    D(   81) --> V(    1) amplitude = -0.0744
    D(   82) --> V(    1) amplitude =  0.9767

 Excited state   3: excitation energy (eV) =       2.8670
 Total energy for state   3:                 -1143.33025591 au
    Multiplicity: Triplet
    Trans. Mom.:  0.0000 X   0.0000 Y   0.0000 Z
    Strength   :     0.0000000000
    D(   76) --> V(    1) amplitude =  0.1286
    D(   78) --> V(    5) amplitude =  0.1342
    D(   80) --> V(    1) amplitude = -0.0813
    D(   81) --> V(    1) amplitude =  0.8789
    D(   81) --> V(   11) amplitude =  0.1084
    D(   82) --> V(    1) amplitude =  0.1110
    D(   82) --> V(    2) amplitude =  0.2667
    D(   82) --> V(    5) amplitude =  0.1755
    D(   82) --> V(   11) amplitude =  0.1017

 Excited state   4: excitation energy (eV) =       3.0992
 Total energy for state   4:                 -1143.32172097 au
    Multiplicity: Triplet
    Trans. Mom.:  0.0000 X   0.0000 Y   0.0000 Z
    Strength   :     0.0000000000
    D(   79) --> V(    1) amplitude =  0.9343
    D(   79) --> V(   11) amplitude = -0.1168
    D(   80) --> V(    1) amplitude = -0.2941

 Excited state   5: excitation energy (eV) =       3.1507
 Total energy for state   5:                 -1143.31982838 au
    Multiplicity: Triplet
    Trans. Mom.:  0.0000 X   0.0000 Y   0.0000 Z
    Strength   :     0.0000000000
    D(   79) --> V(    1) amplitude =  0.3029
    D(   80) --> V(    1) amplitude =  0.8924
    D(   80) --> V(    2) amplitude =  0.1619
    D(   80) --> V(    5) amplitude =  0.1725
    D(   80) --> V(   11) amplitude =  0.1424
    D(   81) --> V(    1) amplitude =  0.0898

 Excited state   6: excitation energy (eV) =       3.2516
 Total energy for state   6:                 -1143.31612040 au
    Multiplicity: Singlet
    Trans. Mom.: -0.0135 X   0.0175 Y  -0.0164 Z
    Strength   :     0.0000600485
    D(   79) --> V(    1) amplitude =  0.9845
    D(   79) --> V(   11) amplitude = -0.1093
    D(   80) --> V(    1) amplitude = -0.0737

 Excited state   7: excitation energy (eV) =       3.4649
 Total energy for state   7:                 -1143.30828417 au
    Multiplicity: Triplet
    Trans. Mom.:  0.0000 X   0.0000 Y   0.0000 Z
    Strength   :     0.0000000000
    D(   77) --> V(    1) amplitude = -0.2274
    D(   78) --> V(    1) amplitude =  0.8189
    D(   78) --> V(    5) amplitude = -0.1538
    D(   81) --> V(    2) amplitude =  0.1176
    D(   81) --> V(    5) amplitude =  0.2817
    D(   82) --> V(    1) amplitude =  0.1192
    D(   82) --> V(    5) amplitude = -0.1778
    D(   82) --> V(   11) amplitude =  0.2170
    D(   82) --> V(   14) amplitude =  0.0902

 Excited state   8: excitation energy (eV) =       3.5563
 Total energy for state   8:                 -1143.30492287 au
    Multiplicity: Triplet
    Trans. Mom.:  0.0000 X   0.0000 Y   0.0000 Z
    Strength   :     0.0000000000
    D(   77) --> V(    1) amplitude =  0.1775
    D(   77) --> V(   32) amplitude = -0.0762
    D(   78) --> V(    2) amplitude = -0.1137
    D(   81) --> V(    1) amplitude = -0.2478
    D(   81) --> V(    2) amplitude = -0.1526
    D(   82) --> V(    2) amplitude =  0.8952
    D(   82) --> V(   32) amplitude = -0.1101

 Excited state   9: excitation energy (eV) =       3.7412
 Total energy for state   9:                 -1143.29812924 au
    Multiplicity: Singlet
    Trans. Mom.: -0.0135 X  -0.2903 Y   0.7618 Z
    Strength   :     0.0609296172
    D(   78) --> V(    1) amplitude =  0.2832
    D(   80) --> V(    1) amplitude =  0.6669
    D(   81) --> V(    1) amplitude = -0.6380
    D(   82) --> V(    2) amplitude = -0.1403
    D(   82) --> V(    5) amplitude =  0.0818

 Excited state  10: excitation energy (eV) =       3.7710
 Total energy for state  10:                 -1143.29703426 au
    Multiplicity: Singlet
    Trans. Mom.:  0.1734 X  -0.2917 Y  -1.2221 Z
    Strength   :     0.1486118360
    D(   78) --> V(    1) amplitude = -0.1926
    D(   80) --> V(    1) amplitude =  0.6927
    D(   81) --> V(    1) amplitude =  0.6314
    D(   81) --> V(    7) amplitude = -0.0851
    D(   82) --> V(    2) amplitude =  0.0985
    D(   82) --> V(    7) amplitude = -0.1538

 Excited state  11: excitation energy (eV) =       3.8523
 Total energy for state  11:                 -1143.29404786 au
    Multiplicity: Triplet
    Trans. Mom.:  0.0000 X   0.0000 Y   0.0000 Z
    Strength   :     0.0000000000
    D(   72) --> V(    1) amplitude =  0.0984
    D(   75) --> V(    1) amplitude =  0.1962
    D(   76) --> V(    1) amplitude = -0.0896
    D(   77) --> V(    1) amplitude =  0.8190
    D(   77) --> V(    2) amplitude = -0.0984
    D(   77) --> V(    5) amplitude = -0.1426
    D(   78) --> V(    1) amplitude =  0.2907
    D(   81) --> V(    1) amplitude =  0.0760
    D(   81) --> V(    2) amplitude =  0.0990
    D(   81) --> V(   11) amplitude =  0.0942
    D(   82) --> V(    2) amplitude = -0.1360
    D(   82) --> V(    5) amplitude =  0.2319
    D(   82) --> V(   11) amplitude = -0.0929
    D(   82) --> V(   32) amplitude =  0.1062

[...]
      XZZZ     -37.5527   YZZZ      33.9477   ZZZZ   -5018.6042
    5th-Order Moments (Debye-Ang^4)
       500    -274.3437    410     147.3639    320    -336.3833
       230     153.5884    140    -430.5261    050    -615.2304
       401     285.8378    311      63.1410    221      -5.0031
       131     -17.4850    041     260.7770    302   -1014.0193
       212     298.8367    122    -198.3210    032     367.5774
       203     100.6437    113     199.0126    023    -455.9767
       104     434.9145    014     476.7599    005  -11914.0802
 -----------------------------------------------------------------
 -----------------------------------------------------------------
                 RPA Excited-State Multipoles, State    4   
                  LMN = < X^L Y^M Z^N >
 -----------------------------------------------------------------
    Charge (ESU x 10^10)
                 0.0000
    Dipole Moment (Debye)
         X       1.8020      Y     -10.9711      Z       0.5162
       Tot      11.1301
    Quadrupole Moments (Debye-Ang)
        XX    -135.4227     XY      -1.4068     YY    -139.0006
        XZ      -5.3203     YZ     -12.1078     ZZ     -58.1284
    Octopole Moments (Debye-Ang^2)
       XXX     -70.9622    XXY     -11.0508    XYY      -8.8206
       YYY    -143.1615    XXZ       3.4844    XYZ      -5.3402
       YYZ      47.0971    XZZ      31.5482    YZZ     -65.9798
       ZZZ    -276.9109
    Hexadecapole Moments (Debye-Ang^3)
      XXXX    -328.9204   XXXY     191.2797   XXYY    -506.6136
      XYYY     183.2817   YYYY   -2742.8940   XXXZ     443.7738
      XXYZ      21.7910   XYYZ     164.4150   YYYZ    -153.3681
      XXZZ   -1561.2279   XYZZ      -0.6540   YYZZ   -1689.9208
      XZZZ       5.1556   YZZZ      75.5720   ZZZZ   -5500.1852
    5th-Order Moments (Debye-Ang^4)
       500    -278.9018    410     148.2578    320    -340.7039
       230     158.9790    140    -470.9285    050    -224.3357
       401     297.6871    311      56.1379    221       9.6533
       131     -24.8813    041     341.3585    302   -1029.1833
       212     307.3912    122    -213.9112    032     373.4316
       203     143.3574    113     148.3486    023    -213.6767
       104     357.7786    014     665.9088    005  -12219.5805
 -----------------------------------------------------------------
 -----------------------------------------------------------------
                 RPA Excited-State Multipoles, State    5   
                  LMN = < X^L Y^M Z^N >
 -----------------------------------------------------------------
    Charge (ESU x 10^10)
                 0.0000
    Dipole Moment (Debye)
         X       1.5641      Y      -7.3073      Z      -2.3287
       Tot       7.8272
    Quadrupole Moments (Debye-Ang)
        XX    -136.1678     XY      -1.9065     YY    -130.4486
        XZ      -4.9070     YZ     -12.5317     ZZ     -68.3312
    Octopole Moments (Debye-Ang^2)
       XXX     -71.0010    XXY     -10.7058    XYY     -11.6417
       YYY    -103.4920    XXZ       1.8819    XYZ      -3.7772
       YYZ      36.5074    XZZ      32.5164    YZZ     -68.6752
       ZZZ    -303.3415
    Hexadecapole Moments (Debye-Ang^3)
      XXXX    -330.7314   XXXY     191.7448   XXYY    -507.0676
      XYYY     175.7204   YYYY   -2626.4319   XXXZ     444.7567
      XXYZ      21.6449   XYYZ     165.4252   YYYZ    -156.3204
      XXZZ   -1569.0473   XYZZ       6.2368   YYZZ   -1727.7863
      XZZZ      13.5768   YZZZ      58.1463   ZZZZ   -5617.1957
    5th-Order Moments (Debye-Ang^4)
       500    -278.7348    410     147.7663    320    -341.8466
       230     165.2139    140    -500.4264    050     246.4010
       401     294.8399    311      59.1264    221       5.2039
       131     -19.0663    041     271.5533    302   -1027.4623
       212     302.3109    122    -210.0740    032     379.1914
       203     126.1582    113     177.5100    023    -349.9574
       104     381.3991    014     567.0830    005  -12506.7976
 -----------------------------------------------------------------
 -----------------------------------------------------------------
                 RPA Excited-State Multipoles, State    6   
                  LMN = < X^L Y^M Z^N >
 -----------------------------------------------------------------
    Charge (ESU x 10^10)
                 0.0000
    Dipole Moment (Debye)
         X       1.2969      Y      -3.4754      Z      -4.9009
       Tot       6.1465
    Quadrupole Moments (Debye-Ang)
        XX    -136.9887     XY      -2.4488     YY    -121.2414
        XZ      -4.3198     YZ     -12.7156     ZZ     -78.5254
    Octopole Moments (Debye-Ang^2)
       XXX     -71.0531    XXY     -10.4989    XYY     -14.9157
       YYY     -61.6375    XXZ       0.2742    XYZ      -1.8328
       YYZ      27.0640    XZZ      33.2748    YZZ     -70.5343
       ZZZ    -326.7264
    Hexadecapole Moments (Debye-Ang^3)
      XXXX    -332.7905   XXXY     192.2047   XXYY    -507.6504
      XYYY     165.6656   YYYY   -2503.3728   XXXZ     446.0662
      XXYZ      21.0325   XYYZ     168.1849   YYYZ    -157.9006
      XXZZ   -1577.2380   XYZZ      13.4185   YYZZ   -1764.3024
      XZZZ      22.1962   YZZZ      44.9131   ZZZZ   -5737.0970
    5th-Order Moments (Debye-Ang^4)
       500    -278.7656    410     146.9265    320    -343.5528
       230     171.8219    140    -541.6745    050     735.1386
       401     292.1262    311      62.4537    221       0.2488
       131      -8.9390    041     208.7616    302   -1026.1073
       212     297.1475    122    -206.6878    032     388.3831
       203     111.5334    113     204.8895    023    -469.1101
       104     396.1891    014     486.8683    005  -12752.9210
 -----------------------------------------------------------------
 -----------------------------------------------------------------
                 RPA Excited-State Multipoles, State    7   
                  LMN = < X^L Y^M Z^N >
 -----------------------------------------------------------------
    Charge (ESU x 10^10)
                 0.0000
    Dipole Moment (Debye)
         X       2.8148      Y     -12.8240      Z      -7.4706
       Tot      15.1059
    Quadrupole Moments (Debye-Ang)
        XX    -134.6251     XY       0.1200     YY    -148.9046
        XZ      -7.4017     YZ     -13.6170     ZZ     -49.0657
    Octopole Moments (Debye-Ang^2)
       XXX     -69.2506    XXY     -10.8324    XYY      -4.9408
       YYY    -164.8850    XXZ      -2.8857    XYZ      -2.6999
       YYZ      22.4554    XZZ      38.5834    YZZ     -61.7136
       ZZZ    -347.0047
    Hexadecapole Moments (Debye-Ang^3)
      XXXX    -327.0373   XXXY     192.8353   XXYY    -507.6986
      XYYY     195.3127   YYYY   -2845.0989   XXXZ     439.3652
      XXYZ      19.7467   XYYZ     162.7245   YYYZ    -158.5340
      XXZZ   -1552.6954   XYZZ      15.1034   YYZZ   -1719.8051
      XZZZ     -27.4140   YZZZ       3.1303   ZZZZ   -5176.3759
    5th-Order Moments (Debye-Ang^4)
       500    -274.1678    410     149.1805    320    -337.8024
       230     160.7993    140    -437.2156    050    -494.8826
       401     284.1472    311      60.8382    221      -5.8846
       131     -21.1599    041     240.1466    302   -1013.1445
       212     308.0522    122    -197.5779    032     429.9516
       203      81.6546    113     172.7507    023    -531.6102
       104     465.4789    014     779.2597    005  -12972.9958
 -----------------------------------------------------------------
 -----------------------------------------------------------------
                 RPA Excited-State Multipoles, State    8   
                  LMN = < X^L Y^M Z^N >
 -----------------------------------------------------------------
    Charge (ESU x 10^10)
                 0.0000
    Dipole Moment (Debye)
         X       2.5265      Y     -11.2806      Z      -6.5071
       Tot      13.2656
    Quadrupole Moments (Debye-Ang)
        XX    -134.9720     XY       0.1604     YY    -145.8613
        XZ      -6.1776     YZ     -15.3649     ZZ     -57.1840
    Octopole Moments (Debye-Ang^2)
       XXX     -70.2052    XXY      -9.9807    XYY      -4.5339
       YYY    -156.6827    XXZ      -1.2397    XYZ      -1.4423
       YYZ      15.5797    XZZ      36.9138    YZZ     -64.0249
       ZZZ    -336.4214
    Hexadecapole Moments (Debye-Ang^3)
      XXXX    -328.6189   XXXY     192.7944   XXYY    -505.3579
      XYYY     193.6709   YYYY   -2814.5403   XXXZ     443.3442
      XXYZ      19.2791   XYYZ     160.6105   YYYZ    -158.1184
      XXZZ   -1563.4086   XYZZ      12.9654   YYZZ   -1711.2221
      XZZZ      -5.0253   YZZZ       3.2219   ZZZZ   -5394.2989
    5th-Order Moments (Debye-Ang^4)
       500    -278.5336    410     150.5891    320    -337.5417
       230     165.1482    140    -433.6092    050    -414.3113
       401     291.4012    311      62.9477    221     -11.9421
       131      -9.4386    041     184.1840    302   -1025.3383
       212     301.3872    122    -176.9973    032     393.1635
       203     112.3052    113     215.1927    023    -671.3045
       104     423.0028    014     607.6565    005  -12543.2022
 -----------------------------------------------------------------
 -----------------------------------------------------------------
                 RPA Excited-State Multipoles, State    9   
                  LMN = < X^L Y^M Z^N >
 -----------------------------------------------------------------
    Charge (ESU x 10^10)
                 0.0000
    Dipole Moment (Debye)
         X       3.1022      Y     -15.6037      Z      -6.6882
       Tot      17.2578
    Quadrupole Moments (Debye-Ang)
        XX    -134.4485     XY      -0.2835     YY    -153.7248
        XZ     -10.4054     YZ      -8.2228     ZZ     -26.4415
    Octopole Moments (Debye-Ang^2)
       XXX     -68.5463    XXY     -12.8718    XYY      -4.6415
       YYY    -181.8819    XXZ      -3.3178    XYZ      -2.8785
       YYZ      27.9391    XZZ      43.4100    YZZ     -61.2926
       ZZZ    -361.4466
    Hexadecapole Moments (Debye-Ang^3)
      XXXX    -326.3074   XXXY     191.7194   XXYY    -510.5159
      XYYY     194.8673   YYYY   -2892.8460   XXXZ     433.8203
      XXYZ      24.6875   XYYZ     158.6647   YYYZ    -131.8544
      XXZZ   -1534.8709   XYZZ       8.3089   YYZZ   -1704.0755
      XZZZ     -91.4568   YZZZ      65.1666   ZZZZ   -4645.3445
    5th-Order Moments (Debye-Ang^4)
       500    -271.0186    410     144.0413    320    -336.6858
       230     147.9659    140    -435.4133    050    -651.7258
       401     280.6800    311      62.0702    221      -1.7061
       131     -23.3874    041     279.2410    302   -1000.0260
       212     305.0649    122    -203.8650    032     438.5555
       203      50.4184    113     159.0863    023    -482.4590
       104     575.5944    014     883.6249    005  -13463.7670
 -----------------------------------------------------------------
 -----------------------------------------------------------------
                 RPA Excited-State Multipoles, State   10   
                  LMN = < X^L Y^M Z^N >
 -----------------------------------------------------------------
    Charge (ESU x 10^10)
                 0.0000
    Dipole Moment (Debye)
         X       2.0415      Y     -15.5403      Z       4.7518
       Tot      16.3783
    Quadrupole Moments (Debye-Ang)
        XX    -134.8492     XY      -0.9545     YY    -147.3971
        XZ      -5.3081     YZ     -14.0493     ZZ     -46.6611
    Octopole Moments (Debye-Ang^2)
       XXX     -70.8652    XXY     -12.0336    XYY      -5.6804
       YYY    -186.8902    XXZ       5.6936    XYZ      -6.8953
       YYZ      61.8765    XZZ      32.1514    YZZ     -78.9195
       ZZZ    -236.2336
    Hexadecapole Moments (Debye-Ang^3)
      XXXX    -327.8751   XXXY     190.8512   XXYY    -506.9826
      XYYY     191.4247   YYYY   -2851.4219   XXXZ     443.6325
      XXYZ      20.9801   XYYZ     165.5259   YYYZ    -163.4802
      XXZZ   -1554.9319   XYZZ      -3.7816   YYZZ   -1661.1025
      XZZZ       5.8295   YZZZ      30.9404   ZZZZ   -5336.5541
    5th-Order Moments (Debye-Ang^4)
       500    -278.5339    410     146.8494    320    -338.5901
       230     147.2689    140    -432.4815    050    -714.0194
       401     301.1013    311      53.5103    221      18.3136
       131     -35.0843    041     443.8519    302   -1028.2523
       212     302.6693    122    -210.9368    032     294.1017
       203     162.9209    113     130.9484    023     -60.4739
       104     367.8497    014     496.7705    005  -11642.5658
 -----------------------------------------------------------------
 -----------------------------------------------------------------
                 RPA Excited-State Multipoles, State   11   
                  LMN = < X^L Y^M Z^N >
 -----------------------------------------------------------------
    Charge (ESU x 10^10)
                 0.0000
    Dipole Moment (Debye)
         X       3.6221      Y     -14.1510      Z     -13.5941
       Tot      19.9542
    Quadrupole Moments (Debye-Ang)
        XX    -134.1282     XY      -0.5550     YY    -148.8147
        XZ      -9.9728     YZ      -8.9806     ZZ     -38.8254
    Octopole Moments (Debye-Ang^2)
       XXX     -67.5553    XXY     -12.2578    XYY      -1.5840
       YYY    -179.6898    XXZ      -9.2329    XYZ       3.7428
       YYZ       7.8134    XZZ      56.1537    YZZ    -102.3545
       ZZZ    -458.4447
    Hexadecapole Moments (Debye-Ang^3)
      XXXX    -325.3390   XXXY     191.5219   XXYY    -505.3408
      XYYY     188.4195   YYYY   -2846.1530   XXXZ     433.1254
      XXYZ      26.0558   XYYZ     150.4207   YYYZ    -111.4821
      XXZZ   -1534.1493   XYZZ     -14.8696   YYZZ   -1676.9435
      XZZZ     -85.3224   YZZZ     192.1286   ZZZZ   -4991.5672
    5th-Order Moments (Debye-Ang^4)
       500    -268.4078    410     145.3305    320    -330.8068
       230     145.8464    140    -410.2972    050    -643.4212
       401     268.1130    311      73.2643    221     -26.5672
       131      26.1283    041     131.9075    302    -973.6857
       212     262.8560    122    -127.9040    032     152.4598
       203     -49.4099    113     347.9375    023    -848.5096
       104     857.7469    014    -335.4812    005  -15379.9448
 -----------------------------------------------------------------
 -----------------------------------------------------------------
                 RPA Excited-State Multipoles, State   12   
                  LMN = < X^L Y^M Z^N >
 -----------------------------------------------------------------
    Charge (ESU x 10^10)
                 0.0000
    Dipole Moment (Debye)
         X       2.3953      Y     -12.0541      Z      -4.2208
       Tot      12.9944
    Quadrupole Moments (Debye-Ang)
        XX    -134.9027     XY      -0.3796     YY    -145.3148
        XZ      -8.0269     YZ     -13.1766     ZZ     -38.6605
    Octopole Moments (Debye-Ang^2)
       XXX     -69.9658    XXY     -10.8748    XYY      -6.5119
       YYY    -154.9643    XXZ      -0.5776    XYZ      -3.8728
       YYZ      30.3046    XZZ      36.4600    YZZ     -59.6092
       ZZZ    -307.2163
    Hexadecapole Moments (Debye-Ang^3)
      XXXX    -328.0365   XXXY     191.9663   XXYY    -506.8526
      XYYY     189.8372   YYYY   -2800.5195   XXXZ     439.1582
      XXYZ      21.0278   XYYZ     161.6109   YYYZ    -150.7324
      XXZZ   -1548.9837   XYZZ      13.2736   YYZZ   -1702.6848
      XZZZ     -48.7945   YZZZ      -1.8755   ZZZZ   -4895.2355
    5th-Order Moments (Debye-Ang^4)
       500    -276.0186    410     147.9491    320    -339.8516
       230     162.0018    140    -451.0575    050    -374.7811
       401     289.0346    311      59.5008    221       0.4498
       131     -25.6754    041     294.1188    302   -1018.3373
       212     308.2590    122    -200.7165    032     423.7450
       203     108.9935    113     150.5078    023    -459.1029
       104     425.1094    014     874.3603    005  -12148.9462
 -----------------------------------------------------------------
 -----------------------------------------------------------------
                 RPA Excited-State Multipoles, State   13   
                  LMN = < X^L Y^M Z^N >
 -----------------------------------------------------------------
    Charge (ESU x 10^10)
                 0.0000
    Dipole Moment (Debye)
         X       2.5879      Y     -11.2812      Z      -7.1830
       Tot      13.6220
    Quadrupole Moments (Debye-Ang)
        XX    -135.1973     XY      -0.5737     YY    -142.4681
        XZ      -6.2993     YZ     -12.9495     ZZ     -60.1761
    Octopole Moments (Debye-Ang^2)
       XXX     -70.1174    XXY     -11.1773    XYY      -3.0668
       YYY    -158.7605    XXZ      -1.2991    XYZ       1.4057
       YYZ       7.2826    XZZ      37.4348    YZZ     -77.9943
       ZZZ    -329.0042
    Hexadecapole Moments (Debye-Ang^3)
      XXXX    -330.5303   XXXY     191.9971   XXYY    -505.1502
      XYYY     188.2834   YYYY   -2798.5712   XXXZ     444.1726
      XXYZ      22.8027   XYYZ     153.4620   YYYZ    -134.5785
      XXZZ   -1567.5897   XYZZ       0.2368   YYZZ   -1682.2150
      XZZZ       0.3419   YZZZ      65.2241   ZZZZ   -5525.0047
    5th-Order Moments (Debye-Ang^4)
       500    -278.5277    410     144.7452    320    -333.3147
       230     150.6578    140    -424.6725    050    -468.5374
       401     294.6868    311      67.8053    221     -19.9081
       131      11.2998    041     134.4589    302   -1030.4162
       212     283.9948    122    -144.7197    032     273.3483
       203     130.7907    113     273.4580    023    -808.6108
       104     397.5851    014     316.9195    005  -12067.4499
 -----------------------------------------------------------------
 -----------------------------------------------------------------
                 RPA Excited-State Multipoles, State   14   
                  LMN = < X^L Y^M Z^N >
 -----------------------------------------------------------------
    Charge (ESU x 10^10)
                 0.0000
    Dipole Moment (Debye)
         X       3.4826      Y     -13.9649      Z     -12.2513
       Tot      18.9008
    Quadrupole Moments (Debye-Ang)
        XX    -134.4980     XY      -0.9417     YY    -146.3725
        XZ     -10.1226     YZ      -8.9779     ZZ     -35.3621
    Octopole Moments (Debye-Ang^2)
       XXX     -67.8907    XXY     -12.8267    XYY      -1.8214
       YYY    -176.0563    XXZ      -8.0526    XYZ       3.9575
       YYZ       7.9855    XZZ      56.5881    YZZ    -104.4363
       ZZZ    -449.4651
    Hexadecapole Moments (Debye-Ang^3)
      XXXX    -327.4632   XXXY     191.2112   XXYY    -506.3230
      XYYY     185.5299   YYYY   -2826.8693   XXXZ     434.0190
      XXYZ      26.6933   XYYZ     149.4629   YYYZ    -114.6542
      XXZZ   -1535.1529   XYZZ     -16.3954   YYZZ   -1661.2851
      XZZZ     -96.0605   YZZZ     177.3630   ZZZZ   -4858.8649
    5th-Order Moments (Debye-Ang^4)
       500    -270.1063    410     142.5299    320    -331.3907
       230     140.7116    140    -413.4469    050    -629.4400
       401     272.5816    311      73.1765    221     -24.2741
       131      25.8871    041     135.9669    302    -977.0233
       212     260.8771    122    -122.0811    032     146.7158
       203     -37.4363    113     343.7700    023    -864.8426
       104     871.5068    014    -298.8624    005  -15239.0216
 -----------------------------------------------------------------
 Total job time:  5070.55s(wall), 68454.44s(cpu) 
 Fri Jan 31 02:15:02 2025

        *************************************************************
        *                                                           *
        *  Thank you very much for using Q-Chem.  Have a nice day.  *
        *                                                           *
        *************************************************************


